 Gaussian 09, Revision D.01,
 Gaussian 09:  EM64L-G09RevD.01 24-Apr-2013

 ----------------------------------------------------------------------
 #P HF/6-31G* SCF(Conver=6) NoSymm Test Pop=chelpg IOp(6/33=2) GFInput
 GFPrint
 ----------------------------------------------------------------------

 ----------------------------------------------
 MEP - Input generated by R.E.D.-III.x MOLECULE
 ----------------------------------------------
 Symbolic Z-matrix:
 Charge =  0 Multiplicity = 1

                          Input orientation:
 ---------------------------------------------------------------------
 Center     Atomic      Atomic             Coordinates (Angstroms)
 Number     Number       Type             X           Y           Z
 ---------------------------------------------------------------------
      1          6           0        7.508036    2.151778   -0.050344
      2          1           0        7.402958    2.071722    1.038598
      3          6           0        6.757287    0.983707   -0.709284
      4          1           0        7.147068    0.034136   -0.329565
      5          1           0        6.981388    1.007723   -1.787393
      6          6           0        5.257732    1.061511   -0.489014
      7          6           0        4.575681    2.385938   -0.854036
      8          6           0        5.409435    3.548718   -0.232180
      9          1           0        5.258420    3.534302    0.855808
     10          1           0        5.015941    4.507196   -0.587560
     11          6           0        6.918872    3.484575   -0.512195
     12          1           0        7.116963    3.611377   -1.586836
     13          1           0        7.430586    4.307226    0.000000
     14          6           0        4.598158    0.000000    0.000000
     15          1           0        5.154424   -0.905037    0.237070
     16          6           0        3.119866   -0.044024    0.258982
     17          1           0        2.708751   -1.009611   -0.061724
     18          6           0        2.361010    1.100766   -0.436658
     19          1           0        2.344655    0.825715   -1.500752
     20          6           0        3.122072    2.441650   -0.264540
     21          1           0        3.239390    2.580145    0.820298
     22          6           0        2.297223    3.642650   -0.785001
     23          1           0        2.284354    3.640402   -1.879695
     24          1           0        2.789325    4.577435   -0.492534
     25          6           0        0.838543    3.680245   -0.285132
     26          1           0        0.825263    3.839541    0.802515
     27          1           0        0.344722    4.548292   -0.732968
     28          6           0        0.091622    2.367025   -0.598919
     29          6           0        0.915332    1.229250    0.067246
     30          1           0        0.982873    1.505484    1.128515
     31          6           0        0.000000    0.000000    0.000000
     32          1           0        0.251067   -0.740087    0.764865
     33          1           0        0.085898   -0.499952   -0.973298
     34          6           0       -1.420721    0.595989    0.196903
     35          1           0       -2.108036    0.235077   -0.577789
     36          1           0       -1.846529    0.286379    1.155672
     37          6           0       -1.286006    2.156256    0.122318
     38          1           0       -1.152013    2.533945    1.148366
     39          6           0       -0.068378    2.173750   -2.124315
     40          1           0        0.892705    2.095482   -2.639174
     41          1           0       -0.636196    1.269559   -2.363569
     42          1           0       -0.602644    3.019975   -2.568766
     43          6           0       -2.560796    2.837320   -0.440656
     44          1           0       -2.750561    2.419507   -1.441333
     45          6           0       -2.422890    4.363677   -0.581364
     46          1           0       -2.145040    4.821480    0.376437
     47          1           0       -3.363889    4.818478   -0.904742
     48          1           0       -1.665657    4.644382   -1.316773
     49          6           0        4.570763    2.517870   -2.401888
     50          1           0        4.279363    3.524940   -2.714618
     51          1           0        5.558061    2.322902   -2.827311
     52          1           0        3.877948    1.803903   -2.858036
     53          8           0        2.836316    0.071146    1.680811
     54          8           0        3.324864   -1.137944    2.326843
     55          1           0        4.094119   -0.791465    2.808612
     56          8           0        8.918162    2.067600   -0.271759
     57          1           0        9.089250    2.157937   -1.219772
     58          6           0       -3.786755    2.487257    0.439407
     59          1           0       -3.794113    1.409747    0.638800
     60          1           0       -3.668440    2.975789    1.418956
     61          6           0       -5.155834    2.861000   -0.152855
     62          1           0       -5.224209    3.945673   -0.293197
     63          1           0       -5.242119    2.412673   -1.152102
     64          6           0       -6.318770    2.386896    0.734224
     65          1           0       -6.192476    2.818463    1.737797
     66          1           0       -6.241862    1.297487    0.862361
     67          6           0       -7.746635    2.717585    0.240705
     68          1           0       -8.430012    2.297312    0.993470
     69          6           0       -8.018748    4.229927    0.180117
     70          1           0       -7.418319    4.718569   -0.595932
     71          1           0       -9.071988    4.427476   -0.049974
     72          1           0       -7.789196    4.715390    1.136012
     73          6           0       -8.081599    2.042168   -1.099548
     74          1           0       -7.483035    2.453667   -1.920467
     75          1           0       -9.136243    2.190796   -1.358225
     76          1           0       -7.896638    0.962210   -1.059503
 ---------------------------------------------------------------------

 SCF Done:  E(RHF) =  -1273.68331425     A.U. after    9 cycles

 Alpha  occ. eigenvalues --  -20.62340 -20.62012 -20.56059 -11.28458 -11.28228
 Alpha  occ. eigenvalues --  -11.24948 -11.24514 -11.23078 -11.22959 -11.22947
 Alpha  occ. eigenvalues --  -11.22903 -11.22666 -11.22657 -11.22428 -11.22393
 Alpha  occ. eigenvalues --  -11.22247 -11.22234 -11.21892 -11.21885 -11.21479
 Alpha  occ. eigenvalues --  -11.21401 -11.21304 -11.21288 -11.21200 -11.21113
 Alpha  occ. eigenvalues --  -11.21007 -11.20951 -11.20938 -11.20806 -11.20771
 Alpha  occ. eigenvalues --   -1.45642  -1.35436  -1.22086  -1.15586  -1.13912
 Alpha  occ. eigenvalues --   -1.09519  -1.07967  -1.05797  -1.05733  -1.03072
 Alpha  occ. eigenvalues --   -1.01582  -0.99436  -0.97960  -0.96332  -0.92917
 Alpha  occ. eigenvalues --   -0.92309  -0.92298  -0.90915  -0.90689  -0.86221
 Alpha  occ. eigenvalues --   -0.84292  -0.82723  -0.82660  -0.78986  -0.78096
 Alpha  occ. eigenvalues --   -0.76961  -0.74546  -0.73658  -0.72029  -0.70816
 Alpha  occ. eigenvalues --   -0.69088  -0.67111  -0.65626  -0.64443  -0.64385
 Alpha  occ. eigenvalues --   -0.63893  -0.63285  -0.62801  -0.62289  -0.61289
 Alpha  occ. eigenvalues --   -0.61174  -0.59730  -0.59467  -0.59076  -0.58552
 Alpha  occ. eigenvalues --   -0.58166  -0.57667  -0.57381  -0.56104  -0.56056
 Alpha  occ. eigenvalues --   -0.55302  -0.54965  -0.54496  -0.54078  -0.53667
 Alpha  occ. eigenvalues --   -0.53227  -0.53005  -0.52486  -0.52041  -0.51525
 Alpha  occ. eigenvalues --   -0.50826  -0.50640  -0.50377  -0.49630  -0.49019
 Alpha  occ. eigenvalues --   -0.48312  -0.48120  -0.47797  -0.47298  -0.46842
 Alpha  occ. eigenvalues --   -0.46442  -0.46105  -0.45430  -0.45117  -0.44965
 Alpha  occ. eigenvalues --   -0.44820  -0.44321  -0.43751  -0.43392  -0.43077
 Alpha  occ. eigenvalues --   -0.42815  -0.42290  -0.41635  -0.40195  -0.38791
 Alpha  occ. eigenvalues --   -0.34673
 Alpha virt. eigenvalues --    0.16045   0.20563   0.21421   0.21905   0.22236
 Alpha virt. eigenvalues --    0.22804   0.23160   0.24254   0.24425   0.24993
 Alpha virt. eigenvalues --    0.25542   0.26282   0.26399   0.26710   0.27084

 Mulliken charges:
               1
     1  C    0.194084
     2  H    0.172060
     3  C   -0.368708
     4  H    0.192235
     5  H    0.155616
     6  C    0.083431
     7  C   -0.044683
     8  C   -0.325406
     9  H    0.168068
    10  H    0.173683
    11  C   -0.341387
    12  H    0.145065
    13  H    0.184038
    14  C   -0.276913
    15  H    0.193389
    16  C    0.191958
    17  H    0.186642
    18  C   -0.209727
    19  H    0.171895
    20  C   -0.157447
    21  H    0.177925
    22  C   -0.329440
    23  H    0.164219
    24  H    0.165325
    25  C   -0.298296
    26  H    0.155287
    27  H    0.164174
    28  C   -0.030147
    29  C   -0.153056
    30  H    0.187087
    31  C   -0.325496
    32  H    0.188992
    33  H    0.150933
    34  C   -0.336145
    35  H    0.157816
    36  H    0.171269
    37  C   -0.136920
    38  H    0.155140
    39  C   -0.489828
    40  H    0.159222
    41  H    0.166143
    42  H    0.163189
    43  C   -0.148940
    44  H    0.151563
    45  C   -0.484927
    46  H    0.153319
    47  H    0.163220
    48  H    0.160740
    49  C   -0.482682
    50  H    0.168169
    51  H    0.162904
    52  H    0.169416
    53  O   -0.398339
    54  O   -0.464533
    55  H    0.459504
    56  O   -0.758826
    57  H    0.428744
    58  C   -0.307682
    59  H    0.166464
    60  H    0.148206
    61  C   -0.314661
    62  H    0.158885
    63  H    0.153652
    64  C   -0.300903
    65  H    0.151922
    66  H    0.151709
    67  C   -0.146359
    68  H    0.155502
    69  C   -0.476247
    70  H    0.155188
    71  H    0.158222
    72  H    0.156964
    73  C   -0.476115
    74  H    0.155824
    75  H    0.157954
    76  H    0.156858
 Sum of Mulliken charges =   0.00000

 Dipole moment (field-independent basis, Debye):
    X=              0.3095    Y=              1.2712    Z=             -2.0877  Tot=              2.4638
 Quadrupole moment (field-independent basis, Debye-Ang):
   XX=           -199.2811   YY=           -189.1096   ZZ=           -187.4824
   XY=              3.1183   XZ=            -10.9728   YZ=             -2.2211

 ESP charges:
               1
     1  C    0.511997
     2  H    0.010096
     3  C   -0.189672
     4  H    0.068633
     5  H    0.045857
     6  C   -0.035160
     7  C    0.351704
     8  C   -0.086350
     9  H   -0.001817
    10  H    0.038923
    11  C   -0.190426
    12  H    0.028211
    13  H    0.052869
    14  C   -0.435650
    15  H    0.157865
    16  C    0.465406
    17  H    0.011431
    18  C   -0.077351
    19  H   -0.038597
    20  C    0.030157
    21  H   -0.042938
    22  C    0.065098
    23  H   -0.019961
    24  H   -0.019847
    25  C   -0.221030
    26  H    0.013120
    27  H    0.027090
    28  C    0.537619
    29  C    0.252582
    30  H   -0.073524
    31  C   -0.295132
    32  H    0.095974
    33  H    0.020771
    34  C    0.066931
    35  H   -0.004272
    36  H   -0.010104
    37  C   -0.099662
    38  H   -0.023226
    39  C   -0.526246
    40  H    0.109178
    41  H    0.106520
    42  H    0.094895
    43  C    0.198162
    44  H   -0.032057
    45  C   -0.337291
    46  H    0.066992
    47  H    0.068039
    48  H    0.074856
    49  C   -0.213549
    50  H    0.025892
    51  H    0.050214
    52  H    0.034231
    53  O   -0.320162
    54  O   -0.450702
    55  H    0.431164
    56  O   -0.750726
    57  H    0.414379
    58  C   -0.106564
    59  H    0.007660
    60  H    0.027387
    61  C    0.143369
    62  H   -0.011094
    63  H   -0.032087
    64  C   -0.179062
    65  H    0.010147
    66  H    0.019255
    67  C    0.431151
    68  H   -0.084774
    69  C   -0.306329
    70  H    0.054435
    71  H    0.059363
    72  H    0.058756
    73  C   -0.258142
    74  H    0.044610
    75  H    0.045820
    76  H    0.044696
 Sum of ESP charges =   0.00000

 Normal termination of Gaussian 09 at Fri Apr 28 12:03:33 2017.
