 Gaussian 09, Revision D.01,
 Gaussian 09:  EM64L-G09RevD.01 24-Apr-2013

 ----------------------------------------------------------------------
 #P HF/6-31G* SCF(Conver=6) NoSymm Test Pop=chelpg IOp(6/33=2) GFInput
 GFPrint
 ----------------------------------------------------------------------

 ----------------------------------------------
 MEP - Input generated by R.E.D.-III.x MOLECULE
 ----------------------------------------------
 Symbolic Z-matrix:
 Charge =  0 Multiplicity = 1

                          Input orientation:
 ---------------------------------------------------------------------
 Center     Atomic      Atomic             Coordinates (Angstroms)
 Number     Number       Type             X           Y           Z
 ---------------------------------------------------------------------
      1          6           0        1.758483   -1.248664    0.055908
      2          1           0        1.883644   -1.209350   -1.033141
      3          6           0        3.146597   -1.260183    0.715614
      4          1           0        3.726013   -2.109386    0.340204
      5          1           0        3.002709   -1.429058    1.794428
      6          6           0        3.905549    0.034505    0.489561
      7          6           0        3.173543    1.333655    0.849001
      8          6           0        1.744137    1.273034    0.226623
      9          1           0        1.839657    1.386427   -0.861843
     10          1           0        1.159183    2.129821    0.578055
     11          6           0        0.968509   -0.022153    0.512309
     12          1           0        0.753757   -0.113245    1.587357
     13          1           0        0.000000    0.000000    0.000000
     14          6           0        5.154654    0.000000    0.000000
     15          1           0        5.604836   -0.963207   -0.232993
     16          6           0        6.003816    1.209820   -0.264047
     17          1           0        7.036937    1.023373    0.055594
     18          6           0        5.465629    2.474209    0.429840
     19          1           0        5.702794    2.335330    1.493836
     20          6           0        3.926265    2.576732    0.255443
     21          1           0        3.747894    2.550170   -0.829600
     22          6           0        3.371200    3.928114    0.768506
     23          1           0        3.377603    3.943681    1.863032
     24          1           0        2.320314    4.025548    0.472612
     25          6           0        4.140681    5.165420    0.262645
     26          1           0        4.012970    5.259751   -0.824950
     27          1           0        3.694558    6.061218    0.709721
     28          6           0        5.645211    5.066923    0.580898
     29          6           0        6.153710    3.751014   -0.075558
     30          1           0        5.890923    3.836942   -1.138388
     31          6           0        7.686518    3.849337    0.000000
     32          1           0        8.171912    3.244167   -0.770770
     33          1           0        8.054602    3.491604    0.970161
     34          6           0        7.965508    5.370086   -0.173646
     35          1           0        8.608356    5.740542    0.631163
     36          1           0        8.493620    5.582287   -1.109546
     37          6           0        6.576244    6.083292   -0.164880
     38          1           0        6.215697    6.067429   -1.204481
     39          6           0        5.872259    5.085733    2.110040
     40          1           0        5.469028    4.194858    2.598811
     41          1           0        6.932608    5.142179    2.369681
     42          1           0        5.376265    5.949229    2.563195
     43          6           0        6.659065    7.599335    0.179860
     44          1           0        7.397065    7.982959   -0.543969
     45          6           0        7.201025    7.969490    1.575395
     46          1           0        6.445671    7.840509    2.356540
     47          1           0        7.513671    9.018231    1.596135
     48          1           0        8.074326    7.372808    1.854054
     49          6           0        3.064892    1.416902    2.396476
     50          1           0        2.383187    2.215012    2.704904
     51          1           0        2.685245    0.486744    2.825868
     52          1           0        4.041608    1.605841    2.852590
     53          8           0        6.061365    1.506399   -1.686780
     54          8           0        6.797213    0.429555   -2.332174
     55          1           0        6.081157   -0.024430   -2.806646
     56          8           0        1.053991   -2.472192    0.282176
     57          1           0        0.883908   -2.561411    1.230477
     58          6           0        5.337969    8.343949   -0.119892
     59          1           0        4.914951    7.952825   -1.055486
     60          1           0        4.603013    8.118141    0.664917
     61          6           0        5.471386    9.869779   -0.250027
     62          1           0        5.840638   10.290970    0.691980
     63          1           0        6.231862   10.100224   -1.011324
     64          6           0        4.150052   10.550444   -0.637340
     65          1           0        3.397868   10.356699    0.142998
     66          1           0        3.766987   10.074737   -1.551616
     67          6           0        4.232998   12.071510   -0.879110
     68          1           0        5.018346   12.245625   -1.630977
     69          6           0        2.909115   12.598392   -1.455451
     70          1           0        2.086155   12.446772   -0.745091
     71          1           0        2.967435   13.671455   -1.670716
     72          1           0        2.644544   12.083053   -2.385911
     73          6           0        4.614220   12.851695    0.389581
     74          1           0        3.872630   12.689136    1.182716
     75          1           0        4.654188   13.928513    0.189470
     76          1           0        5.592133   12.553193    0.780167
 ---------------------------------------------------------------------

 SCF Done:  E(RHF) =  -1273.67975153     A.U. after    9 cycles

 Alpha  occ. eigenvalues --  -20.62338 -20.62010 -20.56062 -11.28458 -11.28230
 Alpha  occ. eigenvalues --  -11.24956 -11.24522 -11.23081 -11.22977 -11.22950
 Alpha  occ. eigenvalues --  -11.22915 -11.22668 -11.22620 -11.22467 -11.22418
 Alpha  occ. eigenvalues --  -11.22396 -11.22244 -11.21912 -11.21888 -11.21497
 Alpha  occ. eigenvalues --  -11.21492 -11.21436 -11.21355 -11.21291 -11.21069
 Alpha  occ. eigenvalues --  -11.21029 -11.21012 -11.20898 -11.20888 -11.20784
 Alpha  occ. eigenvalues --   -1.45644  -1.35439  -1.22079  -1.15580  -1.13891
 Alpha  occ. eigenvalues --   -1.09565  -1.08002  -1.05854  -1.05764  -1.03075
 Alpha  occ. eigenvalues --   -1.01653  -0.99525  -0.97944  -0.96327  -0.92603
 Alpha  occ. eigenvalues --   -0.92410  -0.92352  -0.91749  -0.90390  -0.86222
 Alpha  occ. eigenvalues --   -0.83921  -0.82876  -0.82525  -0.78462  -0.78428
 Alpha  occ. eigenvalues --   -0.76590  -0.75955  -0.73567  -0.71872  -0.70743
 Alpha  occ. eigenvalues --   -0.69012  -0.67088  -0.65227  -0.64614  -0.64512
 Alpha  occ. eigenvalues --   -0.64134  -0.63737  -0.62811  -0.61978  -0.61229
 Alpha  occ. eigenvalues --   -0.60672  -0.59914  -0.59610  -0.59035  -0.58869
 Alpha  occ. eigenvalues --   -0.58021  -0.57625  -0.57095  -0.56347  -0.55933
 Alpha  occ. eigenvalues --   -0.55509  -0.55104  -0.54236  -0.53905  -0.53633
 Alpha  occ. eigenvalues --   -0.53200  -0.53091  -0.52820  -0.51825  -0.51672
 Alpha  occ. eigenvalues --   -0.50760  -0.50440  -0.50061  -0.49668  -0.49032
 Alpha  occ. eigenvalues --   -0.48726  -0.48077  -0.47717  -0.47225  -0.46933
 Alpha  occ. eigenvalues --   -0.46626  -0.46293  -0.45832  -0.45277  -0.45019
 Alpha  occ. eigenvalues --   -0.44910  -0.44447  -0.44218  -0.43072  -0.42961
 Alpha  occ. eigenvalues --   -0.42741  -0.42201  -0.41227  -0.40167  -0.38869
 Alpha  occ. eigenvalues --   -0.34677
 Alpha virt. eigenvalues --    0.16037   0.20341   0.21263   0.21956   0.22399
 Alpha virt. eigenvalues --    0.22647   0.23191   0.24064   0.24357   0.24740
 Alpha virt. eigenvalues --    0.25339   0.26200   0.26529   0.26768   0.27098

 Mulliken charges:
               1
     1  C    0.194111
     2  H    0.172001
     3  C   -0.368743
     4  H    0.192249
     5  H    0.155648
     6  C    0.083587
     7  C   -0.044781
     8  C   -0.325386
     9  H    0.168025
    10  H    0.173744
    11  C   -0.341427
    12  H    0.145106
    13  H    0.184040
    14  C   -0.277592
    15  H    0.193451
    16  C    0.192953
    17  H    0.186709
    18  C   -0.210016
    19  H    0.171881
    20  C   -0.157384
    21  H    0.177911
    22  C   -0.330098
    23  H    0.165197
    24  H    0.165298
    25  C   -0.298873
    26  H    0.154963
    27  H    0.162859
    28  C   -0.023650
    29  C   -0.156023
    30  H    0.187825
    31  C   -0.325606
    32  H    0.188458
    33  H    0.151348
    34  C   -0.328439
    35  H    0.159179
    36  H    0.167189
    37  C   -0.155338
    38  H    0.156611
    39  C   -0.486495
    40  H    0.158258
    41  H    0.167121
    42  H    0.161006
    43  C   -0.136259
    44  H    0.152849
    45  C   -0.485760
    46  H    0.155253
    47  H    0.162224
    48  H    0.161195
    49  C   -0.482580
    50  H    0.168233
    51  H    0.162862
    52  H    0.169450
    53  O   -0.398512
    54  O   -0.464362
    55  H    0.459421
    56  O   -0.758814
    57  H    0.428759
    58  C   -0.304710
    59  H    0.154107
    60  H    0.150542
    61  C   -0.310338
    62  H    0.160255
    63  H    0.149767
    64  C   -0.295261
    65  H    0.146622
    66  H    0.152089
    67  C   -0.147326
    68  H    0.151823
    69  C   -0.472468
    70  H    0.152233
    71  H    0.158222
    72  H    0.157940
    73  C   -0.476350
    74  H    0.151333
    75  H    0.158437
    76  H    0.162245
 Sum of Mulliken charges =   0.00000

 Dipole moment (field-independent basis, Debye):
    X=             -1.2411    Y=              0.4745    Z=              2.0264  Tot=              2.4232
 Quadrupole moment (field-independent basis, Debye-Ang):
   XX=           -209.1410   YY=           -195.5264   ZZ=           -187.4109
   XY=             -4.0932   XZ=              7.5246   YZ=             -0.3462

 ESP charges:
               1
     1  C    0.500598
     2  H    0.012541
     3  C   -0.220149
     4  H    0.077271
     5  H    0.052531
     6  C    0.007189
     7  C    0.292396
     8  C   -0.079333
     9  H   -0.003324
    10  H    0.040083
    11  C   -0.167469
    12  H    0.025430
    13  H    0.046147
    14  C   -0.437610
    15  H    0.150086
    16  C    0.522286
    17  H   -0.004681
    18  C   -0.178167
    19  H   -0.017180
    20  C    0.050380
    21  H   -0.042399
    22  C    0.132987
    23  H   -0.025873
    24  H   -0.034852
    25  C   -0.265911
    26  H    0.023086
    27  H    0.024917
    28  C    0.480683
    29  C    0.320281
    30  H   -0.086232
    31  C   -0.232134
    32  H    0.080742
    33  H    0.007894
    34  C   -0.013508
    35  H    0.016637
    36  H   -0.005515
    37  C   -0.035952
    38  H   -0.020721
    39  C   -0.526029
    40  H    0.105115
    41  H    0.110992
    42  H    0.107485
    43  C    0.153606
    44  H   -0.013516
    45  C   -0.318376
    46  H    0.065379
    47  H    0.066553
    48  H    0.071247
    49  C   -0.237078
    50  H    0.033087
    51  H    0.059794
    52  H    0.043486
    53  O   -0.330754
    54  O   -0.449503
    55  H    0.430151
    56  O   -0.745581
    57  H    0.413581
    58  C   -0.098045
    59  H    0.005862
    60  H    0.027139
    61  C    0.087280
    62  H    0.005643
    63  H   -0.023572
    64  C   -0.140131
    65  H    0.009303
    66  H    0.018008
    67  C    0.420069
    68  H   -0.078209
    69  C   -0.327062
    70  H    0.062886
    71  H    0.068430
    72  H    0.059416
    73  C   -0.287095
    74  H    0.059325
    75  H    0.055595
    76  H    0.042364
 Sum of ESP charges =   0.00000

 Normal termination of Gaussian 09 at Fri Apr 28 12:06:33 2017.
