 Gaussian 09, Revision D.01,
 Gaussian 09:  EM64L-G09RevD.01 24-Apr-2013

 ----------------------------------------------------------------------
 #P HF/6-31G* SCF(Conver=6) NoSymm Test Pop=chelpg IOp(6/33=2) GFInput
 GFPrint
 ----------------------------------------------------------------------

 ----------------------------------------------
 MEP - Input generated by R.E.D.-III.x MOLECULE
 ----------------------------------------------
 Symbolic Z-matrix:
 Charge =  0 Multiplicity = 1

                          Input orientation:
 ---------------------------------------------------------------------
 Center     Atomic      Atomic             Coordinates (Angstroms)
 Number     Number       Type             X           Y           Z
 ---------------------------------------------------------------------
      1          6           0        7.517812    2.151024   -0.057258
      2          1           0        7.417276    2.067780    1.031864
      3          6           0        6.763989    0.985193   -0.716592
      4          1           0        7.155242    0.034307   -0.341712
      5          1           0        6.983257    1.012740   -1.795582
      6          6           0        5.265408    1.062709   -0.489522
      7          6           0        4.582004    2.388324   -0.848310
      8          6           0        5.418634    3.549010   -0.226261
      9          1           0        5.271953    3.531599    0.862291
     10          1           0        5.024236    4.508612   -0.577461
     11          6           0        6.926900    3.485254   -0.512619
     12          1           0        7.120719    3.615382   -1.587633
     13          1           0        7.440808    4.306285    0.000000
     14          6           0        4.608034    0.000000    0.000000
     15          1           0        5.165504   -0.905423    0.232697
     16          6           0        3.130645   -0.044974    0.263991
     17          1           0        2.718829   -1.010311   -0.056680
     18          6           0        2.369747    1.100092   -0.428659
     19          1           0        2.354852    0.826429   -1.492851
     20          6           0        3.130220    2.442310   -0.253649
     21          1           0        3.251467    2.575589    0.831407
     22          6           0        2.306113    3.649488   -0.764564
     23          1           0        2.288351    3.654037   -1.859080
     24          1           0        2.802814    4.580530   -0.468131
     25          6           0        0.850271    3.686196   -0.256800
     26          1           0        0.843080    3.843434    0.831000
     27          1           0        0.346622    4.551851   -0.702173
     28          6           0        0.105082    2.375788   -0.575943
     29          6           0        0.925071    1.226244    0.077737
     30          1           0        0.998360    1.490741    1.141040
     31          6           0        0.000000    0.000000    0.000000
     32          1           0        0.237327   -0.738415    0.770938
     33          1           0        0.098177   -0.503934   -0.970072
     34          6           0       -1.424131    0.602930    0.171628
     35          1           0       -2.084298    0.274417   -0.637488
     36          1           0       -1.895524    0.274116    1.104090
     37          6           0       -1.254870    2.155185    0.170874
     38          1           0       -1.041194    2.441493    1.211715
     39          6           0       -0.036502    2.198230   -2.105302
     40          1           0        0.928899    2.042620   -2.594060
     41          1           0       -0.669120    1.345604   -2.365405
     42          1           0       -0.482444    3.088847   -2.557885
     43          6           0       -2.566551    2.922633   -0.167247
     44          1           0       -3.293328    2.509525    0.551701
     45          6           0       -3.172107    2.687588   -1.565845
     46          1           0       -2.648853    3.256635   -2.340375
     47          1           0       -4.220282    3.002350   -1.584219
     48          1           0       -3.152339    1.633094   -1.855796
     49          6           0        4.571206    2.525326   -2.395686
     50          1           0        4.276636    3.532900   -2.703651
     51          1           0        5.557324    2.333891   -2.825395
     52          1           0        3.878088    1.811705   -2.851812
     53          8           0        2.851358    0.068322    1.686858
     54          8           0        3.346129   -1.139310    2.330695
     55          1           0        4.118490   -0.791308    2.806413
     56          8           0        8.926984    2.067323   -0.284869
     57          1           0        9.094109    2.160706   -1.233294
     58          6           0       -2.463048    4.432107    0.148275
     59          1           0       -1.911475    4.559996    1.090090
     60          1           0       -1.862923    4.929329   -0.626056
     61          6           0       -3.811135    5.160725    0.275035
     62          1           0       -4.351017    5.110380   -0.677864
     63          1           0       -4.430855    4.631181    1.011575
     64          6           0       -3.642216    6.630168    0.693812
     65          1           0       -2.991225    7.130877   -0.037665
     66          1           0       -3.101652    6.662430    1.650906
     67          6           0       -4.937151    7.463132    0.839513
     68          1           0       -4.615018    8.468829    1.147978
     69          6           0       -5.694095    7.620718   -0.489726
     70          1           0       -6.105244    6.665919   -0.837265
     71          1           0       -6.533805    8.316468   -0.379850
     72          1           0       -5.039210    8.009868   -1.278300
     73          6           0       -5.864564    6.928208    1.943289
     74          1           0       -6.281784    5.949002    1.681544
     75          1           0       -6.707736    7.608817    2.107826
     76          1           0       -5.331441    6.820872    2.895324
 ---------------------------------------------------------------------

 SCF Done:  E(RHF) =  -1273.67823121     A.U. after    9 cycles

 Alpha  occ. eigenvalues --  -20.62334 -20.62006 -20.56059 -11.28454 -11.28228
 Alpha  occ. eigenvalues --  -11.24952 -11.24518 -11.23078 -11.22973 -11.22948
 Alpha  occ. eigenvalues --  -11.22911 -11.22667 -11.22611 -11.22497 -11.22394
 Alpha  occ. eigenvalues --  -11.22392 -11.22241 -11.21895 -11.21884 -11.21492
 Alpha  occ. eigenvalues --  -11.21490 -11.21383 -11.21322 -11.21283 -11.21063
 Alpha  occ. eigenvalues --  -11.21011 -11.20978 -11.20886 -11.20884 -11.20772
 Alpha  occ. eigenvalues --   -1.45639  -1.35436  -1.22076  -1.15575  -1.13885
 Alpha  occ. eigenvalues --   -1.09514  -1.07952  -1.05800  -1.05748  -1.03068
 Alpha  occ. eigenvalues --   -1.01607  -0.99405  -0.97935  -0.96317  -0.92593
 Alpha  occ. eigenvalues --   -0.92393  -0.92355  -0.91739  -0.90435  -0.86220
 Alpha  occ. eigenvalues --   -0.84273  -0.83140  -0.82617  -0.78714  -0.78422
 Alpha  occ. eigenvalues --   -0.76687  -0.74620  -0.73464  -0.71842  -0.70730
 Alpha  occ. eigenvalues --   -0.69003  -0.67084  -0.65183  -0.64621  -0.64404
 Alpha  occ. eigenvalues --   -0.63772  -0.63608  -0.62800  -0.62289  -0.61333
 Alpha  occ. eigenvalues --   -0.61222  -0.60186  -0.59468  -0.59026  -0.58683
 Alpha  occ. eigenvalues --   -0.58071  -0.57653  -0.57361  -0.56251  -0.55762
 Alpha  occ. eigenvalues --   -0.55583  -0.55115  -0.54227  -0.53892  -0.53579
 Alpha  occ. eigenvalues --   -0.53334  -0.53140  -0.52131  -0.51889  -0.51583
 Alpha  occ. eigenvalues --   -0.51371  -0.50608  -0.49974  -0.49677  -0.49048
 Alpha  occ. eigenvalues --   -0.48633  -0.48099  -0.47841  -0.47105  -0.47026
 Alpha  occ. eigenvalues --   -0.46478  -0.46199  -0.45851  -0.45245  -0.45004
 Alpha  occ. eigenvalues --   -0.44754  -0.44277  -0.44136  -0.43057  -0.42936
 Alpha  occ. eigenvalues --   -0.42729  -0.42192  -0.41184  -0.40162  -0.38861
 Alpha  occ. eigenvalues --   -0.34672
 Alpha virt. eigenvalues --    0.16042   0.20342   0.21254   0.21847   0.22166
 Alpha virt. eigenvalues --    0.22523   0.23182   0.24053   0.24334   0.24744
 Alpha virt. eigenvalues --    0.25363   0.25996   0.26522   0.27053   0.27136

 Mulliken charges:
               1
     1  C    0.194105
     2  H    0.172011
     3  C   -0.368734
     4  H    0.192247
     5  H    0.155656
     6  C    0.083544
     7  C   -0.044873
     8  C   -0.325385
     9  H    0.168023
    10  H    0.173717
    11  C   -0.341416
    12  H    0.145079
    13  H    0.184011
    14  C   -0.277492
    15  H    0.193441
    16  C    0.192951
    17  H    0.186733
    18  C   -0.210055
    19  H    0.171865
    20  C   -0.157338
    21  H    0.177883
    22  C   -0.330087
    23  H    0.165180
    24  H    0.165262
    25  C   -0.298791
    26  H    0.155034
    27  H    0.162685
    28  C   -0.023648
    29  C   -0.156025
    30  H    0.187950
    31  C   -0.325630
    32  H    0.188408
    33  H    0.151382
    34  C   -0.328453
    35  H    0.159074
    36  H    0.167176
    37  C   -0.155394
    38  H    0.156571
    39  C   -0.486523
    40  H    0.158219
    41  H    0.167130
    42  H    0.161019
    43  C   -0.135954
    44  H    0.152603
    45  C   -0.485569
    46  H    0.155074
    47  H    0.162300
    48  H    0.161021
    49  C   -0.482451
    50  H    0.168223
    51  H    0.162816
    52  H    0.169447
    53  O   -0.398522
    54  O   -0.464381
    55  H    0.459424
    56  O   -0.758825
    57  H    0.428750
    58  C   -0.303929
    59  H    0.153794
    60  H    0.150280
    61  C   -0.315346
    62  H    0.160124
    63  H    0.154817
    64  C   -0.300520
    65  H    0.150220
    66  H    0.151540
    67  C   -0.146268
    68  H    0.155134
    69  C   -0.476188
    70  H    0.155867
    71  H    0.158402
    72  H    0.156281
    73  C   -0.476249
    74  H    0.156452
    75  H    0.158137
    76  H    0.156984
 Sum of Mulliken charges =   0.00000

 Dipole moment (field-independent basis, Debye):
    X=              0.3348    Y=              1.4237    Z=             -2.0465  Tot=              2.5154
 Quadrupole moment (field-independent basis, Debye-Ang):
   XX=           -199.8917   YY=           -187.8235   ZZ=           -187.6901
   XY=              2.8432   XZ=            -10.7966   YZ=             -2.0805

 ESP charges:
               1
     1  C    0.491017
     2  H    0.016193
     3  C   -0.195690
     4  H    0.071731
     5  H    0.048008
     6  C   -0.003169
     7  C    0.319918
     8  C   -0.136904
     9  H    0.010819
    10  H    0.054440
    11  C   -0.168827
    12  H    0.027821
    13  H    0.052341
    14  C   -0.449950
    15  H    0.152722
    16  C    0.543078
    17  H   -0.004613
    18  C   -0.257471
    19  H    0.002565
    20  C    0.089509
    21  H   -0.050616
    22  C    0.144911
    23  H   -0.029609
    24  H   -0.041134
    25  C   -0.287858
    26  H    0.030858
    27  H    0.033998
    28  C    0.480670
    29  C    0.312509
    30  H   -0.086329
    31  C   -0.163453
    32  H    0.062010
    33  H   -0.004828
    34  C   -0.057140
    35  H    0.020852
    36  H    0.003064
    37  C   -0.020351
    38  H   -0.022923
    39  C   -0.542222
    40  H    0.113470
    41  H    0.114081
    42  H    0.107677
    43  C    0.198257
    44  H   -0.024294
    45  C   -0.289528
    46  H    0.062626
    47  H    0.053117
    48  H    0.062066
    49  C   -0.219717
    50  H    0.027613
    51  H    0.055887
    52  H    0.035031
    53  O   -0.321330
    54  O   -0.452467
    55  H    0.429925
    56  O   -0.746420
    57  H    0.414207
    58  C   -0.252749
    59  H    0.036022
    60  H    0.059030
    61  C    0.245274
    62  H   -0.026668
    63  H   -0.035591
    64  C   -0.251091
    65  H    0.029587
    66  H    0.036068
    67  C    0.420974
    68  H   -0.076292
    69  C   -0.289217
    70  H    0.052176
    71  H    0.055446
    72  H    0.053923
    73  C   -0.266026
    74  H    0.044777
    75  H    0.049495
    76  H    0.048716
 Sum of ESP charges =   0.00000

 Normal termination of Gaussian 09 at Fri Apr 28 11:59:30 2017.
