 Gaussian 09, Revision D.01,
 Gaussian 09:  EM64L-G09RevD.01 24-Apr-2013

 ----------------------------------------------------------------------
 #P HF/6-31G* SCF(Conver=6) NoSymm Test Pop=chelpg IOp(6/33=2) GFInput
 GFPrint
 ----------------------------------------------------------------------

 ----------------------------------------------
 MEP - Input generated by R.E.D.-III.x MOLECULE
 ----------------------------------------------
 Symbolic Z-matrix:
 Charge =  0 Multiplicity = 1

                          Input orientation:
 ---------------------------------------------------------------------
 Center     Atomic      Atomic             Coordinates (Angstroms)
 Number     Number       Type             X           Y           Z
 ---------------------------------------------------------------------
      1          6           0        7.508565    2.150772   -0.052670
      2          1           0        7.404425    2.069522    1.036272
      3          6           0        6.756760    0.983695   -0.712247
      4          1           0        7.147125    0.033535   -0.334606
      5          1           0        6.979150    1.009590   -1.790637
      6          6           0        5.257589    1.061576   -0.489560
      7          6           0        4.575481    2.386625   -0.852252
      8          6           0        5.410228    3.548436   -0.229937
      9          1           0        5.260945    3.532556    0.858278
     10          1           0        5.016384    4.507478   -0.583452
     11          6           0        6.919177    3.484273   -0.512347
     12          1           0        7.115713    3.612199   -1.587130
     13          1           0        7.431870    4.306221    0.000000
     14          6           0        4.598416    0.000000    0.000000
     15          1           0        5.154731   -0.905430    0.235399
     16          6           0        3.120473   -0.043403    0.261453
     17          1           0        2.708698   -1.009258   -0.057637
     18          6           0        2.361252    1.101142   -0.434014
     19          1           0        2.344499    0.826350   -1.498062
     20          6           0        3.122476    2.441918   -0.261301
     21          1           0        3.240660    2.579191    0.823580
     22          6           0        2.297457    3.643754   -0.779745
     23          1           0        2.284863    3.643732   -1.874448
     24          1           0        2.789440    4.578020   -0.485425
     25          6           0        0.838564    3.680558   -0.280514
     26          1           0        0.824600    3.838610    0.807319
     27          1           0        0.344306    4.548683   -0.727714
     28          6           0        0.092470    2.367495   -0.596076
     29          6           0        0.915389    1.229226    0.069525
     30          1           0        0.982278    1.504194    1.131190
     31          6           0        0.000000    0.000000    0.000000
     32          1           0        0.250159   -0.740999    0.764300
     33          1           0        0.086717   -0.499013   -0.973657
     34          6           0       -1.420960    0.595818    0.196424
     35          1           0       -2.108306    0.235235   -0.578326
     36          1           0       -1.845893    0.285024    1.155217
     37          6           0       -1.286306    2.156080    0.123185
     38          1           0       -1.154179    2.533167    1.149734
     39          6           0       -0.066381    2.175622   -2.121909
     40          1           0        0.894872    2.103080   -2.637401
     41          1           0       -0.629703    1.268947   -2.362490
     42          1           0       -0.604992    3.019729   -2.565000
     43          6           0       -2.558199    2.839202   -0.443291
     44          1           0       -2.745165    2.421615   -1.444517
     45          6           0       -2.414272    4.365610   -0.581945
     46          1           0       -2.106460    4.816317    0.369831
     47          1           0       -3.361161    4.828953   -0.875285
     48          1           0       -1.676543    4.645701   -1.337400
     49          6           0        4.568709    2.520947   -2.399949
     50          1           0        4.277258    3.528626   -2.710532
     51          1           0        5.555361    2.326362   -2.827036
     52          1           0        3.875125    1.807947   -2.856322
     53          8           0        2.838745    0.073946    1.683480
     54          8           0        3.333255   -1.131117    2.332179
     55          1           0        4.105440   -0.781218    2.806800
     56          8           0        8.918400    2.066467   -0.275585
     57          1           0        9.088593    2.157880   -1.223655
     58          6           0       -3.791969    2.498235    0.431963
     59          1           0       -3.758333    1.439978    0.707704
     60          1           0       -3.719542    3.060565    1.376004
     61          6           0       -5.151131    2.784046   -0.227787
     62          1           0       -5.192047    3.827372   -0.563261
     63          1           0       -5.242428    2.175313   -1.137724
     64          6           0       -6.366005    2.545653    0.688590
     65          1           0       -7.274089    2.865136    0.155830
     66          1           0       -6.278738    3.209224    1.561142
     67          6           0       -6.589793    1.104377    1.194264
     68          1           0       -5.693082    0.788439    1.746175
     69          6           0       -7.770739    1.066212    2.177535
     70          1           0       -8.702388    1.368107    1.681713
     71          1           0       -7.920903    0.058229    2.580818
     72          1           0       -7.608952    1.745060    3.022782
     73          6           0       -6.812768    0.107686    0.045835
     74          1           0       -7.688070    0.392747   -0.552475
     75          1           0       -6.990284   -0.902098    0.433040
     76          1           0       -5.951833    0.054477   -0.628408
 ---------------------------------------------------------------------

 SCF Done:  E(RHF) =  -1273.68309213     A.U. after    9 cycles

 Alpha  occ. eigenvalues --  -20.62353 -20.62027 -20.56071 -11.28475 -11.28242
 Alpha  occ. eigenvalues --  -11.24964 -11.24536 -11.23093 -11.22976 -11.22961
 Alpha  occ. eigenvalues --  -11.22920 -11.22679 -11.22678 -11.22411 -11.22275
 Alpha  occ. eigenvalues --  -11.22271 -11.22260 -11.21930 -11.21899 -11.21493
 Alpha  occ. eigenvalues --  -11.21442 -11.21386 -11.21314 -11.21183 -11.21171
 Alpha  occ. eigenvalues --  -11.21028 -11.20913 -11.20902 -11.20848 -11.20802
 Alpha  occ. eigenvalues --   -1.45662  -1.35450  -1.22099  -1.15606  -1.13938
 Alpha  occ. eigenvalues --   -1.09582  -1.07978  -1.05797  -1.05728  -1.03095
 Alpha  occ. eigenvalues --   -1.01581  -0.99449  -0.97984  -0.96355  -0.92940
 Alpha  occ. eigenvalues --   -0.92327  -0.92272  -0.90978  -0.90722  -0.86235
 Alpha  occ. eigenvalues --   -0.83991  -0.82701  -0.82453  -0.79260  -0.78263
 Alpha  occ. eigenvalues --   -0.77065  -0.74661  -0.73865  -0.72065  -0.70827
 Alpha  occ. eigenvalues --   -0.69095  -0.67122  -0.65560  -0.64465  -0.64383
 Alpha  occ. eigenvalues --   -0.63908  -0.63261  -0.62885  -0.62699  -0.61391
 Alpha  occ. eigenvalues --   -0.60627  -0.60114  -0.59178  -0.58969  -0.58323
 Alpha  occ. eigenvalues --   -0.57789  -0.57459  -0.57271  -0.56365  -0.55827
 Alpha  occ. eigenvalues --   -0.55606  -0.54712  -0.54411  -0.54114  -0.53678
 Alpha  occ. eigenvalues --   -0.53545  -0.53024  -0.52939  -0.52567  -0.51930
 Alpha  occ. eigenvalues --   -0.50959  -0.50314  -0.49662  -0.49570  -0.49037
 Alpha  occ. eigenvalues --   -0.48726  -0.48161  -0.47590  -0.47184  -0.47020
 Alpha  occ. eigenvalues --   -0.46608  -0.46272  -0.45439  -0.45173  -0.45070
 Alpha  occ. eigenvalues --   -0.44510  -0.44187  -0.43779  -0.43411  -0.43007
 Alpha  occ. eigenvalues --   -0.42842  -0.42363  -0.41634  -0.40218  -0.38873
 Alpha  occ. eigenvalues --   -0.34692
 Alpha virt. eigenvalues --    0.16023   0.20506   0.21333   0.21825   0.22241
 Alpha virt. eigenvalues --    0.22916   0.23262   0.24241   0.24325   0.24866
 Alpha virt. eigenvalues --    0.25480   0.26146   0.26666   0.26751   0.27018

 Mulliken charges:
               1
     1  C    0.194105
     2  H    0.172013
     3  C   -0.368746
     4  H    0.192279
     5  H    0.155664
     6  C    0.083597
     7  C   -0.044732
     8  C   -0.325396
     9  H    0.168064
    10  H    0.173727
    11  C   -0.341435
    12  H    0.145115
    13  H    0.184077
    14  C   -0.277432
    15  H    0.193497
    16  C    0.192075
    17  H    0.186551
    18  C   -0.209787
    19  H    0.171983
    20  C   -0.157473
    21  H    0.178081
    22  C   -0.329535
    23  H    0.164244
    24  H    0.165358
    25  C   -0.298237
    26  H    0.155219
    27  H    0.164439
    28  C   -0.030342
    29  C   -0.153027
    30  H    0.187178
    31  C   -0.325273
    32  H    0.188923
    33  H    0.151144
    34  C   -0.336578
    35  H    0.157612
    36  H    0.170476
    37  C   -0.136928
    38  H    0.155177
    39  C   -0.490080
    40  H    0.159392
    41  H    0.166027
    42  H    0.163440
    43  C   -0.147339
    44  H    0.152017
    45  C   -0.485242
    46  H    0.154018
    47  H    0.162727
    48  H    0.160718
    49  C   -0.482772
    50  H    0.168234
    51  H    0.162943
    52  H    0.169454
    53  O   -0.398340
    54  O   -0.464359
    55  H    0.459471
    56  O   -0.758788
    57  H    0.428772
    58  C   -0.315186
    59  H    0.172528
    60  H    0.147851
    61  C   -0.312966
    62  H    0.157827
    63  H    0.153489
    64  C   -0.296930
    65  H    0.150365
    66  H    0.151963
    67  C   -0.153223
    68  H    0.157161
    69  C   -0.471624
    70  H    0.151834
    71  H    0.158269
    72  H    0.157768
    73  C   -0.476250
    74  H    0.151679
    75  H    0.158604
    76  H    0.160871
 Sum of Mulliken charges =   0.00000

 Dipole moment (field-independent basis, Debye):
    X=              0.4429    Y=              1.3287    Z=             -2.1399  Tot=              2.5575
 Quadrupole moment (field-independent basis, Debye-Ang):
   XX=           -200.8775   YY=           -188.6954   ZZ=           -187.5604
   XY=              2.7917   XZ=            -10.1170   YZ=             -2.4528

 ESP charges:
               1
     1  C    0.494602
     2  H    0.009442
     3  C   -0.147625
     4  H    0.059414
     5  H    0.033957
     6  C   -0.059995
     7  C    0.410708
     8  C   -0.143173
     9  H    0.006697
    10  H    0.048154
    11  C   -0.148139
    12  H    0.017353
    13  H    0.045698
    14  C   -0.447091
    15  H    0.159938
    16  C    0.488382
    17  H    0.006359
    18  C   -0.099701
    19  H   -0.035557
    20  C    0.051901
    21  H   -0.049768
    22  C    0.039523
    23  H   -0.019790
    24  H   -0.017902
    25  C   -0.191483
    26  H    0.004751
    27  H    0.019661
    28  C    0.581535
    29  C    0.200302
    30  H   -0.058159
    31  C   -0.229112
    32  H    0.081063
    33  H    0.010871
    34  C    0.000731
    35  H    0.005699
    36  H    0.014183
    37  C   -0.137012
    38  H   -0.023365
    39  C   -0.512570
    40  H    0.103802
    41  H    0.104742
    42  H    0.086837
    43  C    0.231948
    44  H   -0.041919
    45  C   -0.362750
    46  H    0.068091
    47  H    0.078121
    48  H    0.076548
    49  C   -0.231411
    50  H    0.027646
    51  H    0.054121
    52  H    0.034599
    53  O   -0.324594
    54  O   -0.447930
    55  H    0.429649
    56  O   -0.748877
    57  H    0.412376
    58  C    0.026127
    59  H   -0.024797
    60  H   -0.003877
    61  C   -0.023061
    62  H    0.017518
    63  H   -0.009688
    64  C   -0.121859
    65  H    0.012645
    66  H    0.010456
    67  C    0.461316
    68  H   -0.089154
    69  C   -0.354084
    70  H    0.066619
    71  H    0.074945
    72  H    0.061404
    73  C   -0.272869
    74  H    0.050585
    75  H    0.043246
    76  H    0.053042
 Sum of ESP charges =   0.00000

 Normal termination of Gaussian 09 at Fri Apr 28 12:32:27 2017.
