 Gaussian 09, Revision D.01,
 Gaussian 09:  EM64L-G09RevD.01 24-Apr-2013

 ----------------------------------------------------------------------
 #P HF/6-31G* SCF(Conver=6) NoSymm Test Pop=chelpg IOp(6/33=2) GFInput
 GFPrint
 ----------------------------------------------------------------------

 ----------------------------------------------
 MEP - Input generated by R.E.D.-III.x MOLECULE
 ----------------------------------------------
 Symbolic Z-matrix:
 Charge =  0 Multiplicity = 1

                          Input orientation:
 ---------------------------------------------------------------------
 Center     Atomic      Atomic             Coordinates (Angstroms)
 Number     Number       Type             X           Y           Z
 ---------------------------------------------------------------------
      1          6           0        7.508655    2.151420   -0.052219
      2          1           0        7.405103    2.070469    1.036797
      3          6           0        6.756713    0.984116   -0.711145
      4          1           0        7.146903    0.034069   -0.333041
      5          1           0        6.979143    1.009281   -1.789583
      6          6           0        5.257489    1.061996   -0.488573
      7          6           0        4.575114    2.386934   -0.851137
      8          6           0        5.410109    3.549037   -0.229733
      9          1           0        5.260744    3.533851    0.858476
     10          1           0        5.016343    4.507885   -0.583798
     11          6           0        6.919100    3.484721   -0.512096
     12          1           0        7.115632    3.612356   -1.586919
     13          1           0        7.431783    4.306829    0.000000
     14          6           0        4.598306    0.000000    0.000000
     15          1           0        5.154694   -0.905444    0.235187
     16          6           0        3.120263   -0.044062    0.260559
     17          1           0        2.708713   -1.009288   -0.060715
     18          6           0        2.361068    1.101645   -0.433182
     19          1           0        2.344556    0.828216   -1.497651
     20          6           0        3.122557    2.442070   -0.259022
     21          1           0        3.241794    2.577778    0.825948
     22          6           0        2.297506    3.644960   -0.774877
     23          1           0        2.284313    3.647024   -1.869557
     24          1           0        2.789719    4.578583   -0.478941
     25          6           0        0.838950    3.680772   -0.274510
     26          1           0        0.825863    3.836277    0.813682
     27          1           0        0.345008    4.550318   -0.719199
     28          6           0        0.092096    2.368619   -0.592628
     29          6           0        0.915390    1.229024    0.070898
     30          1           0        0.982558    1.502541    1.132883
     31          6           0        0.000000    0.000000    0.000000
     32          1           0        0.250483   -0.742004    0.763206
     33          1           0        0.086489   -0.497586   -0.974463
     34          6           0       -1.420851    0.595501    0.197430
     35          1           0       -2.107566    0.236593   -0.578734
     36          1           0       -1.847317    0.283367    1.155085
     37          6           0       -1.286078    2.155976    0.126986
     38          1           0       -1.153056    2.530967    1.154143
     39          6           0       -0.066757    2.179653   -2.118705
     40          1           0        0.894711    2.102619   -2.633050
     41          1           0       -0.634532    1.276213   -2.360922
     42          1           0       -0.600533    3.027215   -2.561212
     43          6           0       -2.560193    2.838642   -0.435647
     44          1           0       -2.748478    2.423996   -1.437926
     45          6           0       -2.422011    4.365499   -0.571138
     46          1           0       -2.143225    4.819802    0.388037
     47          1           0       -3.363038    4.821903   -0.892177
     48          1           0       -1.665286    4.648584   -1.306194
     49          6           0        4.567266    2.520245   -2.398875
     50          1           0        4.275490    3.527656   -2.710119
     51          1           0        5.553680    2.325420   -2.826404
     52          1           0        3.873380    1.806833   -2.854281
     53          8           0        2.837997    0.070022    1.682719
     54          8           0        3.329684   -1.138133    2.327997
     55          1           0        4.100023   -0.790537    2.807248
     56          8           0        8.918441    2.067137   -0.275693
     57          1           0        9.088250    2.158210   -1.223866
     58          6           0       -3.787706    2.485582    0.441301
     59          1           0       -3.792235    1.408481    0.642428
     60          1           0       -3.674144    2.976310    1.420279
     61          6           0       -5.155525    2.854327   -0.155917
     62          1           0       -5.221504    3.936998   -0.309684
     63          1           0       -5.248346    2.394362   -1.151304
     64          6           0       -6.326659    2.388866    0.722738
     65          1           0       -6.257594    2.874314    1.708450
     66          1           0       -6.217414    1.310740    0.908320
     67          6           0       -7.733136    2.641800    0.142376
     68          1           0       -7.765469    2.186829   -0.859849
     69          6           0       -8.803159    1.951890    1.003533
     70          1           0       -8.813401    2.366373    2.019840
     71          1           0       -9.804622    2.088773    0.579773
     72          1           0       -8.617384    0.874836    1.085602
     73          6           0       -8.050080    4.138554   -0.009272
     74          1           0       -8.004031    4.645452    0.963513
     75          1           0       -9.058726    4.286014   -0.411913
     76          1           0       -7.350235    4.643412   -0.682602
 ---------------------------------------------------------------------

 SCF Done:  E(RHF) =  -1273.68482042     A.U. after    9 cycles

 Alpha  occ. eigenvalues --  -20.62344 -20.62017 -20.56063 -11.28464 -11.28233
 Alpha  occ. eigenvalues --  -11.24954 -11.24522 -11.23085 -11.22965 -11.22953
 Alpha  occ. eigenvalues --  -11.22910 -11.22671 -11.22667 -11.22399 -11.22395
 Alpha  occ. eigenvalues --  -11.22257 -11.22253 -11.21907 -11.21891 -11.21486
 Alpha  occ. eigenvalues --  -11.21411 -11.21351 -11.21297 -11.21222 -11.21127
 Alpha  occ. eigenvalues --  -11.21018 -11.20953 -11.20947 -11.20819 -11.20790
 Alpha  occ. eigenvalues --   -1.45649  -1.35441  -1.22090  -1.15594  -1.13922
 Alpha  occ. eigenvalues --   -1.09561  -1.08022  -1.05842  -1.05756  -1.03082
 Alpha  occ. eigenvalues --   -1.01630  -0.99555  -0.97974  -0.96344  -0.92930
 Alpha  occ. eigenvalues --   -0.92316  -0.92288  -0.90906  -0.90658  -0.86226
 Alpha  occ. eigenvalues --   -0.83985  -0.82684  -0.82289  -0.78833  -0.77966
 Alpha  occ. eigenvalues --   -0.76943  -0.75886  -0.73733  -0.72058  -0.70823
 Alpha  occ. eigenvalues --   -0.69095  -0.67116  -0.65616  -0.64721  -0.64443
 Alpha  occ. eigenvalues --   -0.63897  -0.63730  -0.62807  -0.61597  -0.61258
 Alpha  occ. eigenvalues --   -0.60639  -0.59892  -0.59501  -0.59115  -0.58702
 Alpha  occ. eigenvalues --   -0.58113  -0.57578  -0.57043  -0.56511  -0.56058
 Alpha  occ. eigenvalues --   -0.55040  -0.54958  -0.54399  -0.53954  -0.53639
 Alpha  occ. eigenvalues --   -0.53193  -0.52963  -0.52815  -0.52049  -0.52015
 Alpha  occ. eigenvalues --   -0.50907  -0.50437  -0.49963  -0.49589  -0.49021
 Alpha  occ. eigenvalues --   -0.48380  -0.48022  -0.47873  -0.47375  -0.46922
 Alpha  occ. eigenvalues --   -0.46347  -0.45976  -0.45569  -0.45115  -0.45002
 Alpha  occ. eigenvalues --   -0.44843  -0.44653  -0.43884  -0.43409  -0.43086
 Alpha  occ. eigenvalues --   -0.42826  -0.42311  -0.41663  -0.40202  -0.38806
 Alpha  occ. eigenvalues --   -0.34680
 Alpha virt. eigenvalues --    0.16036   0.20559   0.21430   0.22124   0.22398
 Alpha virt. eigenvalues --    0.22866   0.23183   0.24242   0.24413   0.25055
 Alpha virt. eigenvalues --    0.25559   0.26099   0.26370   0.26691   0.27151

 Mulliken charges:
               1
     1  C    0.194096
     2  H    0.172053
     3  C   -0.368705
     4  H    0.192256
     5  H    0.155622
     6  C    0.083432
     7  C   -0.044700
     8  C   -0.325418
     9  H    0.168058
    10  H    0.173713
    11  C   -0.341392
    12  H    0.145069
    13  H    0.184053
    14  C   -0.277094
    15  H    0.193442
    16  C    0.192028
    17  H    0.186602
    18  C   -0.209791
    19  H    0.171918
    20  C   -0.157480
    21  H    0.178024
    22  C   -0.329460
    23  H    0.164213
    24  H    0.165370
    25  C   -0.298326
    26  H    0.155321
    27  H    0.164191
    28  C   -0.030151
    29  C   -0.153074
    30  H    0.187186
    31  C   -0.325464
    32  H    0.188914
    33  H    0.150952
    34  C   -0.336204
    35  H    0.157796
    36  H    0.171291
    37  C   -0.136887
    38  H    0.155213
    39  C   -0.489897
    40  H    0.159285
    41  H    0.166114
    42  H    0.163209
    43  C   -0.149119
    44  H    0.151806
    45  C   -0.485035
    46  H    0.153473
    47  H    0.163089
    48  H    0.160868
    49  C   -0.482662
    50  H    0.168158
    51  H    0.162922
    52  H    0.169427
    53  O   -0.398331
    54  O   -0.464454
    55  H    0.459494
    56  O   -0.758820
    57  H    0.428750
    58  C   -0.308476
    59  H    0.166680
    60  H    0.148709
    61  C   -0.309608
    62  H    0.158902
    63  H    0.148550
    64  C   -0.295629
    65  H    0.148214
    66  H    0.152344
    67  C   -0.147278
    68  H    0.151091
    69  C   -0.472491
    70  H    0.152801
    71  H    0.157829
    72  H    0.158068
    73  C   -0.476253
    74  H    0.151907
    75  H    0.158164
    76  H    0.161537
 Sum of Mulliken charges =   0.00000

 Dipole moment (field-independent basis, Debye):
    X=              0.3771    Y=              1.2756    Z=             -2.2160  Tot=              2.5846
 Quadrupole moment (field-independent basis, Debye-Ang):
   XX=           -200.4607   YY=           -189.0457   ZZ=           -187.4175
   XY=              3.2366   XZ=             -9.6504   YZ=             -2.2178

 ESP charges:
               1
     1  C    0.501144
     2  H    0.013716
     3  C   -0.193544
     4  H    0.071230
     5  H    0.046996
     6  C   -0.036067
     7  C    0.387021
     8  C   -0.122910
     9  H    0.004261
    10  H    0.047718
    11  C   -0.174822
    12  H    0.025994
    13  H    0.051648
    14  C   -0.438129
    15  H    0.158324
    16  C    0.462042
    17  H    0.017577
    18  C   -0.117496
    19  H   -0.025603
    20  C    0.042097
    21  H   -0.044000
    22  C    0.046239
    23  H   -0.020412
    24  H   -0.019828
    25  C   -0.169185
    26  H   -0.001652
    27  H    0.010749
    28  C    0.567660
    29  C    0.223712
    30  H   -0.060274
    31  C   -0.282911
    32  H    0.093669
    33  H    0.019951
    34  C    0.078622
    35  H   -0.008034
    36  H   -0.010344
    37  C   -0.178600
    38  H   -0.011320
    39  C   -0.493167
    40  H    0.098775
    41  H    0.099786
    42  H    0.081203
    43  C    0.255188
    44  H   -0.043269
    45  C   -0.371611
    46  H    0.071728
    47  H    0.072533
    48  H    0.083437
    49  C   -0.233876
    50  H    0.030069
    51  H    0.054270
    52  H    0.037786
    53  O   -0.317582
    54  O   -0.449871
    55  H    0.431087
    56  O   -0.748793
    57  H    0.414090
    58  C   -0.012473
    59  H   -0.010632
    60  H    0.001041
    61  C    0.017903
    62  H    0.021009
    63  H   -0.020609
    64  C   -0.140196
    65  H    0.014782
    66  H    0.023665
    67  C    0.419869
    68  H   -0.068611
    69  C   -0.357576
    70  H    0.071775
    71  H    0.076929
    72  H    0.066368
    73  C   -0.303856
    74  H    0.066519
    75  H    0.059193
    76  H    0.047878
 Sum of ESP charges =   0.00000

 Normal termination of Gaussian 09 at Fri Apr 28 13:09:30 2017.
