 Gaussian 09, Revision D.01,
 Gaussian 09:  EM64L-G09RevD.01 24-Apr-2013

 ----------------------------------------------------------------------
 #P HF/6-31G* SCF(Conver=6) NoSymm Test Pop=chelpg IOp(6/33=2) GFInput
 GFPrint
 ----------------------------------------------------------------------

 ----------------------------------------------
 MEP - Input generated by R.E.D.-III.x MOLECULE
 ----------------------------------------------
 Symbolic Z-matrix:
 Charge =  0 Multiplicity = 1

                          Input orientation:
 ---------------------------------------------------------------------
 Center     Atomic      Atomic             Coordinates (Angstroms)
 Number     Number       Type             X           Y           Z
 ---------------------------------------------------------------------
      1          6           0        1.755903   -1.244721    0.142486
      2          1           0        1.884946   -1.276314   -0.946063
      3          6           0        3.142677   -1.215448    0.805693
      4          1           0        3.722607   -2.086308    0.484827
      5          1           0        2.996557   -1.315129    1.892712
      6          6           0        3.898985    0.062650    0.498743
      7          6           0        3.171199    1.382537    0.777369
      8          6           0        1.742982    1.284801    0.156645
      9          1           0        1.841366    1.333905   -0.936159
     10          1           0        1.157569    2.160625    0.456365
     11          6           0        0.965931    0.009084    0.517575
     12          1           0        0.745366   -0.015295    1.595155
     13          1           0        0.000000    0.000000    0.000000
     14          6           0        5.142986    0.000000    0.000000
     15          1           0        5.588014   -0.970962   -0.210034
     16          6           0        5.972690    1.196239   -0.361708
     17          1           0        7.027415    1.019593   -0.124027
     18          6           0        5.467455    2.485579    0.313946
     19          1           0        5.692096    2.362322    1.383688
     20          6           0        3.930754    2.582329    0.108411
     21          1           0        3.779484    2.471183   -0.975406
     22          6           0        3.350924    3.962365    0.495674
     23          1           0        3.291826    4.057950    1.584524
     24          1           0        2.319676    4.036571    0.131640
     25          6           0        4.150737    5.160412   -0.051162
     26          1           0        4.095361    5.173063   -1.149025
     27          1           0        3.672277    6.081267    0.296037
     28          6           0        5.632248    5.087459    0.366797
     29          6           0        6.183726    3.744744   -0.196547
     30          1           0        6.001087    3.786350   -1.279824
     31          6           0        7.702900    3.858551    0.000000
     32          1           0        8.256321    3.204419   -0.676141
     33          1           0        7.982507    3.580758    1.024563
     34          6           0        7.991512    5.360430   -0.267711
     35          1           0        8.614618    5.789027    0.526703
     36          1           0        8.547410    5.491298   -1.200835
     37          6           0        6.608481    6.095338   -0.333980
     38          1           0        6.296158    6.136907   -1.389401
     39          6           0        5.775089    5.191416    1.903639
     40          1           0        5.309851    4.351202    2.425453
     41          1           0        6.823243    5.222588    2.215254
     42          1           0        5.299086    6.104890    2.275763
     43          6           0        6.691911    7.561630    0.165568
     44          1           0        7.075865    7.543777    1.197244
     45          6           0        5.332531    8.282994    0.179055
     46          1           0        4.865293    8.258112   -0.813599
     47          1           0        5.444490    9.332716    0.466529
     48          1           0        4.633498    7.833110    0.887414
     49          6           0        3.059066    1.561557    2.316399
     50          1           0        2.386834    2.385849    2.572002
     51          1           0        2.664698    0.664728    2.800255
     52          1           0        4.036197    1.765705    2.764800
     53          8           0        5.873526    1.238786   -1.817096
     54          8           0        7.109668    1.792062   -2.377286
     55          1           0        7.376723    1.049481   -2.942593
     56          8           0        1.049795   -2.450439    0.446674
     57          1           0        0.869268   -2.472525    1.396981
     58          6           0        7.713043    8.357155   -0.686163
     59          1           0        8.639049    7.777194   -0.775834
     60          1           0        7.313517    8.451192   -1.706358
     61          6           0        8.083724    9.744741   -0.135337
     62          1           0        7.216404   10.414355   -0.160133
     63          1           0        8.350655    9.639685    0.925944
     64          6           0        9.267956   10.413228   -0.858129
     65          1           0       10.149651    9.763539   -0.759066
     66          1           0        9.518902   11.346849   -0.332845
     67          6           0        9.071309   10.741149   -2.353721
     68          1           0        8.837694    9.806287   -2.882991
     69          6           0        7.911000   11.720490   -2.592088
     70          1           0        8.084504   12.666222   -2.062091
     71          1           0        7.807320   11.952081   -3.658288
     72          1           0        6.952883   11.317184   -2.248668
     73          6           0       10.375009   11.294659   -2.950999
     74          1           0       10.659978   12.235892   -2.463289
     75          1           0       10.268346   11.495468   -4.023187
     76          1           0       11.204293   10.589477   -2.822651
 ---------------------------------------------------------------------

 SCF Done:  E(RHF) =  -1273.67986216     A.U. after    9 cycles

 Alpha  occ. eigenvalues --  -20.62384 -20.62262 -20.55791 -11.28579 -11.27913
 Alpha  occ. eigenvalues --  -11.24651 -11.24293 -11.22825 -11.22618 -11.22477
 Alpha  occ. eigenvalues --  -11.22434 -11.22414 -11.22392 -11.22381 -11.22220
 Alpha  occ. eigenvalues --  -11.22082 -11.21992 -11.21639 -11.21506 -11.21364
 Alpha  occ. eigenvalues --  -11.21298 -11.21116 -11.21066 -11.20943 -11.20874
 Alpha  occ. eigenvalues --  -11.20873 -11.20863 -11.20762 -11.20627 -11.20382
 Alpha  occ. eigenvalues --   -1.45243  -1.35163  -1.22366  -1.15391  -1.13612
 Alpha  occ. eigenvalues --   -1.09473  -1.07772  -1.05512  -1.05487  -1.02840
 Alpha  occ. eigenvalues --   -1.01381  -0.99293  -0.97602  -0.96049  -0.92658
 Alpha  occ. eigenvalues --   -0.92231  -0.92039  -0.90781  -0.90478  -0.85995
 Alpha  occ. eigenvalues --   -0.83793  -0.82473  -0.82269  -0.78996  -0.78061
 Alpha  occ. eigenvalues --   -0.76799  -0.74583  -0.73527  -0.71994  -0.69961
 Alpha  occ. eigenvalues --   -0.68570  -0.66764  -0.66483  -0.64932  -0.64065
 Alpha  occ. eigenvalues --   -0.63717  -0.62749  -0.62067  -0.61791  -0.61424
 Alpha  occ. eigenvalues --   -0.60905  -0.60133  -0.59537  -0.58616  -0.58013
 Alpha  occ. eigenvalues --   -0.57401  -0.57100  -0.56255  -0.55999  -0.55925
 Alpha  occ. eigenvalues --   -0.55357  -0.54758  -0.54107  -0.53849  -0.53732
 Alpha  occ. eigenvalues --   -0.53302  -0.53036  -0.52796  -0.52380  -0.52072
 Alpha  occ. eigenvalues --   -0.50753  -0.50059  -0.49684  -0.49309  -0.48605
 Alpha  occ. eigenvalues --   -0.48479  -0.47927  -0.47264  -0.47168  -0.46691
 Alpha  occ. eigenvalues --   -0.46440  -0.45875  -0.45375  -0.45104  -0.44614
 Alpha  occ. eigenvalues --   -0.44456  -0.44067  -0.43349  -0.43143  -0.42981
 Alpha  occ. eigenvalues --   -0.42646  -0.42286  -0.41418  -0.39879  -0.38260
 Alpha  occ. eigenvalues --   -0.34430
 Alpha virt. eigenvalues --    0.15887   0.20921   0.21451   0.22044   0.22480
 Alpha virt. eigenvalues --    0.23323   0.23493   0.24529   0.24798   0.25253
 Alpha virt. eigenvalues --    0.25944   0.26223   0.26601   0.27017   0.27340

 Mulliken charges:
               1
     1  C    0.192584
     2  H    0.177323
     3  C   -0.368100
     4  H    0.192601
     5  H    0.154657
     6  C    0.085549
     7  C   -0.045365
     8  C   -0.326102
     9  H    0.171964
    10  H    0.173098
    11  C   -0.341682
    12  H    0.143619
    13  H    0.183618
    14  C   -0.249562
    15  H    0.187401
    16  C    0.158721
    17  H    0.189149
    18  C   -0.180847
    19  H    0.164294
    20  C   -0.169205
    21  H    0.188339
    22  C   -0.328617
    23  H    0.162624
    24  H    0.165090
    25  C   -0.298898
    26  H    0.156256
    27  H    0.163310
    28  C   -0.029661
    29  C   -0.164680
    30  H    0.193609
    31  C   -0.325701
    32  H    0.192575
    33  H    0.146794
    34  C   -0.335055
    35  H    0.155803
    36  H    0.168822
    37  C   -0.136077
    38  H    0.155697
    39  C   -0.491236
    40  H    0.160041
    41  H    0.165770
    42  H    0.161830
    43  C   -0.148384
    44  H    0.151064
    45  C   -0.485586
    46  H    0.153016
    47  H    0.163135
    48  H    0.161436
    49  C   -0.481843
    50  H    0.167646
    51  H    0.161749
    52  H    0.169438
    53  O   -0.393249
    54  O   -0.471578
    55  H    0.460625
    56  O   -0.759110
    57  H    0.428021
    58  C   -0.311974
    59  H    0.165264
    60  H    0.151767
    61  C   -0.312643
    62  H    0.158284
    63  H    0.153635
    64  C   -0.298165
    65  H    0.151202
    66  H    0.150039
    67  C   -0.151861
    68  H    0.157886
    69  C   -0.476740
    70  H    0.151423
    71  H    0.158081
    72  H    0.161823
    73  C   -0.471779
    74  H    0.151770
    75  H    0.157788
    76  H    0.157475
 Sum of Mulliken charges =   0.00000

 Dipole moment (field-independent basis, Debye):
    X=              0.5952    Y=             -0.0663    Z=              1.7328  Tot=              1.8333
 Quadrupole moment (field-independent basis, Debye-Ang):
   XX=           -184.7702   YY=           -202.5005   ZZ=           -186.6416
   XY=            -10.5339   XZ=              0.7141   YZ=              1.4586

 ESP charges:
               1
     1  C    0.510328
     2  H    0.011239
     3  C   -0.202008
     4  H    0.068960
     5  H    0.046632
     6  C    0.009550
     7  C    0.336597
     8  C   -0.065066
     9  H   -0.008720
    10  H    0.034360
    11  C   -0.189777
    12  H    0.025493
    13  H    0.051743
    14  C   -0.481378
    15  H    0.170777
    16  C    0.596967
    17  H   -0.035612
    18  C   -0.171032
    19  H   -0.030397
    20  C    0.071824
    21  H   -0.028217
    22  C   -0.009374
    23  H   -0.008443
    24  H   -0.009113
    25  C   -0.145706
    26  H   -0.010578
    27  H    0.015762
    28  C    0.544622
    29  C    0.249945
    30  H   -0.028709
    31  C   -0.191252
    32  H    0.044050
    33  H    0.003219
    34  C    0.017683
    35  H   -0.000615
    36  H    0.010667
    37  C   -0.187751
    38  H   -0.021295
    39  C   -0.493259
    40  H    0.101850
    41  H    0.099577
    42  H    0.081176
    43  C    0.255385
    44  H   -0.048053
    45  C   -0.352070
    46  H    0.063809
    47  H    0.067711
    48  H    0.076685
    49  C   -0.270496
    50  H    0.043327
    51  H    0.064488
    52  H    0.047365
    53  O   -0.360872
    54  O   -0.475768
    55  H    0.449992
    56  O   -0.747130
    57  H    0.412218
    58  C    0.065583
    59  H   -0.038479
    60  H   -0.008574
    61  C   -0.022080
    62  H    0.009834
    63  H   -0.002130
    64  C   -0.137525
    65  H    0.021628
    66  H    0.016933
    67  C    0.457867
    68  H   -0.087599
    69  C   -0.309895
    70  H    0.061220
    71  H    0.057378
    72  H    0.057512
    73  C   -0.372837
    74  H    0.071925
    75  H    0.081021
    76  H    0.066907
 Sum of ESP charges =   0.00000

 Normal termination of Gaussian 09 at Fri Apr 28 12:56:12 2017.
