 Gaussian 09, Revision D.01,
 Gaussian 09:  EM64L-G09RevD.01 24-Apr-2013

 ----------------------------------------------------------------------
 #P HF/6-31G* SCF(Conver=6) NoSymm Test Pop=chelpg IOp(6/33=2) GFInput
 GFPrint
 ----------------------------------------------------------------------

 ----------------------------------------------
 MEP - Input generated by R.E.D.-III.x MOLECULE
 ----------------------------------------------
 Symbolic Z-matrix:
 Charge =  0 Multiplicity = 1

                          Input orientation:
 ---------------------------------------------------------------------
 Center     Atomic      Atomic             Coordinates (Angstroms)
 Number     Number       Type             X           Y           Z
 ---------------------------------------------------------------------
      1          6           0       -0.964038    2.002900    1.689194
      2          1           0       -0.981153    1.023290    2.182457
      3          6           0        0.388066    2.677382    1.970506
      4          1           0        0.540279    2.761297    3.051059
      5          1           0        0.336913    3.705468    1.578695
      6          6           0        1.548627    1.936186    1.332592
      7          6           0        1.427890    1.625652   -0.164642
      8          6           0        0.015450    1.014558   -0.420918
      9          1           0        0.000000    0.000000    0.000000
     10          1           0       -0.142206    0.905804   -1.499385
     11          6           0       -1.152712    1.807845    0.184833
     12          1           0       -1.239832    2.793089   -0.296692
     13          1           0       -2.097420    1.284080    0.000000
     14          6           0        2.610601    1.590397    2.076735
     15          1           0        2.620149    1.844870    3.134977
     16          6           0        3.816186    0.859714    1.559882
     17          1           0        4.730851    1.290829    1.986244
     18          6           0        3.903371    0.872669    0.022920
     19          1           0        4.209861    1.896199   -0.234313
     20          6           0        2.513120    0.579756   -0.603029
     21          1           0        2.194241   -0.384149   -0.179893
     22          6           0        2.594470    0.391204   -2.137694
     23          1           0        2.752720    1.358369   -2.625408
     24          1           0        1.632467    0.020681   -2.510137
     25          6           0        3.705219   -0.572638   -2.603216
     26          1           0        3.478766   -1.591155   -2.257623
     27          1           0        3.701182   -0.605079   -3.698779
     28          6           0        5.084758   -0.156359   -2.056882
     29          6           0        4.954301   -0.114116   -0.506742
     30          1           0        4.604119   -1.114188   -0.218207
     31          6           0        6.401684    0.000000    0.000000
     32          1           0        6.507779   -0.383080    1.018775
     33          1           0        6.730488    1.047073    0.013330
     34          6           0        7.218222   -0.826002   -1.034700
     35          1           0        8.055557   -0.239025   -1.425553
     36          1           0        7.656947   -1.722760   -0.583941
     37          6           0        6.225828   -1.225169   -2.172603
     38          1           0        5.750336   -2.164064   -1.851097
     39          6           0        5.505992    1.208643   -2.647761
     40          1           0        4.859805    2.022795   -2.308928
     41          1           0        6.530239    1.477768   -2.376750
     42          1           0        5.448877    1.190282   -3.740154
     43          6           0        6.937503   -1.602807   -3.505390
     44          1           0        7.668060   -2.361712   -3.186571
     45          6           0        7.752155   -0.495176   -4.202196
     46          1           0        7.112711    0.201982   -4.752313
     47          1           0        8.449144   -0.932989   -4.924112
     48          1           0        8.351234    0.087005   -3.496073
     49          6           0        1.568911    2.958931   -0.949410
     50          1           0        1.296396    2.832067   -2.001300
     51          1           0        0.920891    3.738516   -0.541885
     52          1           0        2.594496    3.338282   -0.904891
     53          8           0        3.792863   -0.536928    1.965322
     54          8           0        3.966699   -0.579646    3.409497
     55          1           0        3.075237   -0.840012    3.694875
     56          8           0       -2.047370    2.715724    2.291557
     57          1           0       -2.109289    3.590058    1.881837
     58          6           0        5.978532   -2.294477   -4.502158
     59          1           0        5.354219   -3.012347   -3.951716
     60          1           0        5.290619   -1.543445   -4.911177
     61          6           0        6.635567   -3.033848   -5.685816
     62          1           0        5.828564   -3.384959   -6.341227
     63          1           0        7.221772   -2.326977   -6.285485
     64          6           0        7.511841   -4.228971   -5.275695
     65          1           0        6.925829   -4.880875   -4.611013
     66          1           0        8.360710   -3.872114   -4.677419
     67          6           0        8.075222   -5.093464   -6.428978
     68          1           0        8.680574   -5.876765   -5.949160
     69          6           0        6.974669   -5.806222   -7.232505
     70          1           0        6.359994   -5.096602   -7.798164
     71          1           0        7.411669   -6.505718   -7.954317
     72          1           0        6.307941   -6.377442   -6.575815
     73          6           0        9.013117   -4.303561   -7.356952
     74          1           0        8.470541   -3.537523   -7.922892
     75          1           0        9.492785   -4.968469   -8.084302
     76          1           0        9.806225   -3.801977   -6.789905
 ---------------------------------------------------------------------

 SCF Done:  E(RHF) =  -1273.67626377     A.U. after    9 cycles

 Alpha  occ. eigenvalues --  -20.62332 -20.62004 -20.56058 -11.28451 -11.28226
 Alpha  occ. eigenvalues --  -11.24949 -11.24515 -11.23076 -11.22967 -11.22945
 Alpha  occ. eigenvalues --  -11.22904 -11.22665 -11.22610 -11.22486 -11.22391
 Alpha  occ. eigenvalues --  -11.22292 -11.22239 -11.21890 -11.21883 -11.21494
 Alpha  occ. eigenvalues --  -11.21439 -11.21394 -11.21354 -11.21275 -11.21046
 Alpha  occ. eigenvalues --  -11.20998 -11.20970 -11.20880 -11.20866 -11.20772
 Alpha  occ. eigenvalues --   -1.45636  -1.35435  -1.22073  -1.15568  -1.13874
 Alpha  occ. eigenvalues --   -1.09519  -1.07893  -1.05773  -1.05695  -1.03065
 Alpha  occ. eigenvalues --   -1.01567  -0.99215  -0.97934  -0.96297  -0.92602
 Alpha  occ. eigenvalues --   -0.92391  -0.92338  -0.91789  -0.90586  -0.86217
 Alpha  occ. eigenvalues --   -0.84617  -0.83160  -0.82614  -0.78633  -0.78422
 Alpha  occ. eigenvalues --   -0.76793  -0.74257  -0.73153  -0.71857  -0.70742
 Alpha  occ. eigenvalues --   -0.69013  -0.67085  -0.65245  -0.64677  -0.64349
 Alpha  occ. eigenvalues --   -0.63772  -0.63087  -0.62908  -0.62621  -0.61472
 Alpha  occ. eigenvalues --   -0.61123  -0.59779  -0.59355  -0.59068  -0.58825
 Alpha  occ. eigenvalues --   -0.58053  -0.57696  -0.57306  -0.56142  -0.55844
 Alpha  occ. eigenvalues --   -0.55339  -0.55008  -0.54313  -0.54072  -0.53849
 Alpha  occ. eigenvalues --   -0.53473  -0.53135  -0.52202  -0.52110  -0.51778
 Alpha  occ. eigenvalues --   -0.51114  -0.50526  -0.49912  -0.49707  -0.49403
 Alpha  occ. eigenvalues --   -0.48959  -0.48149  -0.47973  -0.47358  -0.46902
 Alpha  occ. eigenvalues --   -0.46404  -0.46049  -0.45332  -0.45229  -0.44974
 Alpha  occ. eigenvalues --   -0.44601  -0.44293  -0.43514  -0.43043  -0.42840
 Alpha  occ. eigenvalues --   -0.42676  -0.42298  -0.41439  -0.40148  -0.38793
 Alpha  occ. eigenvalues --   -0.34670
 Alpha virt. eigenvalues --    0.16044   0.20163   0.21136   0.21694   0.22237
 Alpha virt. eigenvalues --    0.22687   0.23209   0.24113   0.24396   0.24803
 Alpha virt. eigenvalues --    0.25525   0.26027   0.26459   0.26730   0.27107

 Mulliken charges:
               1
     1  C    0.194099
     2  H    0.172012
     3  C   -0.368752
     4  H    0.192231
     5  H    0.155646
     6  C    0.083561
     7  C   -0.044816
     8  C   -0.325414
     9  H    0.168019
    10  H    0.173719
    11  C   -0.341381
    12  H    0.145078
    13  H    0.184009
    14  C   -0.277434
    15  H    0.193401
    16  C    0.192821
    17  H    0.186752
    18  C   -0.209905
    19  H    0.171853
    20  C   -0.157388
    21  H    0.177854
    22  C   -0.329957
    23  H    0.165126
    24  H    0.165203
    25  C   -0.298897
    26  H    0.155178
    27  H    0.162177
    28  C   -0.023719
    29  C   -0.156070
    30  H    0.187820
    31  C   -0.325627
    32  H    0.188502
    33  H    0.151242
    34  C   -0.328569
    35  H    0.158882
    36  H    0.167036
    37  C   -0.152909
    38  H    0.156426
    39  C   -0.486179
    40  H    0.158124
    41  H    0.166979
    42  H    0.160987
    43  C   -0.142225
    44  H    0.158335
    45  C   -0.486209
    46  H    0.155301
    47  H    0.161352
    48  H    0.161018
    49  C   -0.482485
    50  H    0.168218
    51  H    0.162817
    52  H    0.169473
    53  O   -0.398491
    54  O   -0.464416
    55  H    0.459415
    56  O   -0.758823
    57  H    0.428750
    58  C   -0.306721
    59  H    0.152662
    60  H    0.153869
    61  C   -0.317636
    62  H    0.159044
    63  H    0.159385
    64  C   -0.305775
    65  H    0.150725
    66  H    0.156062
    67  C   -0.145595
    68  H    0.155527
    69  C   -0.476392
    70  H    0.155540
    71  H    0.158265
    72  H    0.156960
    73  C   -0.476857
    74  H    0.156291
    75  H    0.158487
    76  H    0.156408
 Sum of Mulliken charges =   0.00000

 Dipole moment (field-independent basis, Debye):
    X=             -0.7051    Y=              1.4874    Z=             -1.8016  Tot=              2.4404
 Quadrupole moment (field-independent basis, Debye-Ang):
   XX=           -204.9714   YY=           -183.9302   ZZ=           -195.8254
   XY=              3.9172   XZ=             -1.6524   YZ=             -1.7574

 ESP charges:
               1
     1  C    0.495877
     2  H    0.019710
     3  C   -0.206186
     4  H    0.073983
     5  H    0.051754
     6  C   -0.001330
     7  C    0.296930
     8  C   -0.117721
     9  H    0.009510
    10  H    0.053660
    11  C   -0.205991
    12  H    0.038137
    13  H    0.061606
    14  C   -0.462948
    15  H    0.160633
    16  C    0.515566
    17  H   -0.006668
    18  C   -0.115212
    19  H   -0.040437
    20  C    0.133131
    21  H   -0.071592
    22  C    0.091814
    23  H   -0.026266
    24  H   -0.035583
    25  C   -0.256624
    26  H    0.021485
    27  H    0.042026
    28  C    0.500402
    29  C    0.249501
    30  H   -0.079675
    31  C   -0.137626
    32  H    0.059259
    33  H   -0.012828
    34  C   -0.066815
    35  H    0.022213
    36  H    0.007783
    37  C   -0.097325
    38  H   -0.013017
    39  C   -0.538658
    40  H    0.108631
    41  H    0.119457
    42  H    0.103822
    43  C    0.344454
    44  H   -0.048180
    45  C   -0.361733
    46  H    0.073142
    47  H    0.081965
    48  H    0.067376
    49  C   -0.214752
    50  H    0.027382
    51  H    0.054374
    52  H    0.033908
    53  O   -0.325719
    54  O   -0.450406
    55  H    0.429071
    56  O   -0.746396
    57  H    0.415459
    58  C   -0.305383
    59  H    0.040322
    60  H    0.038064
    61  C    0.281161
    62  H   -0.052584
    63  H   -0.056787
    64  C   -0.137051
    65  H    0.002541
    66  H    0.004371
    67  C    0.383122
    68  H   -0.070596
    69  C   -0.301498
    70  H    0.058415
    71  H    0.060464
    72  H    0.056835
    73  C   -0.286382
    74  H    0.049767
    75  H    0.058995
    76  H    0.051892
 Sum of ESP charges =   0.00000

 Normal termination of Gaussian 09 at Fri Apr 28 12:25:18 2017.
