 Gaussian 09, Revision D.01,
 Gaussian 09:  EM64L-G09RevD.01 24-Apr-2013

 ----------------------------------------------------------------------
 #P HF/6-31G* SCF(Conver=6) NoSymm Test Pop=chelpg IOp(6/33=2) GFInput
 GFPrint
 ----------------------------------------------------------------------

 ----------------------------------------------
 MEP - Input generated by R.E.D.-III.x MOLECULE
 ----------------------------------------------
 Symbolic Z-matrix:
 Charge =  0 Multiplicity = 1

                          Input orientation:
 ---------------------------------------------------------------------
 Center     Atomic      Atomic             Coordinates (Angstroms)
 Number     Number       Type             X           Y           Z
 ---------------------------------------------------------------------
      1          6           0        7.508351    2.150526   -0.052692
      2          1           0        7.405370    2.069514    1.036378
      3          6           0        6.755774    0.983388   -0.711331
      4          1           0        7.145671    0.033281   -0.333065
      5          1           0        6.978179    1.008175   -1.789785
      6          6           0        5.256570    1.061685   -0.488795
      7          6           0        4.574809    2.387053   -0.851292
      8          6           0        5.410089    3.548425   -0.229027
      9          1           0        5.261196    3.532257    0.859224
     10          1           0        5.016206    4.507610   -0.582083
     11          6           0        6.918919    3.484090   -0.512081
     12          1           0        7.114994    3.611909   -1.586945
     13          1           0        7.431964    4.305988    0.000000
     14          6           0        4.597070    0.000000    0.000000
     15          1           0        5.153161   -0.905589    0.235396
     16          6           0        3.118907   -0.043574    0.260136
     17          1           0        2.707100   -1.008705   -0.060989
     18          6           0        2.360456    1.102140   -0.434152
     19          1           0        2.344347    0.828619   -1.498645
     20          6           0        3.122046    2.442470   -0.259819
     21          1           0        3.240835    2.578353    0.825183
     22          6           0        2.296803    3.645091   -0.776175
     23          1           0        2.284121    3.646850   -1.870867
     24          1           0        2.788605    4.578978   -0.480295
     25          6           0        0.837840    3.680818   -0.276694
     26          1           0        0.823787    3.836591    0.811431
     27          1           0        0.344552    4.550484   -0.721947
     28          6           0        0.091112    2.368686   -0.595234
     29          6           0        0.914589    1.229775    0.069301
     30          1           0        0.981655    1.504583    1.130953
     31          6           0        0.000000    0.000000    0.000000
     32          1           0        0.249151   -0.739245    0.766316
     33          1           0        0.089397   -0.500854   -0.972545
     34          6           0       -1.421985    0.594735    0.191258
     35          1           0       -2.103409    0.237938   -0.590383
     36          1           0       -1.855599    0.280816    1.145155
     37          6           0       -1.287067    2.154961    0.124336
     38          1           0       -1.153379    2.527777    1.152257
     39          6           0       -0.067821    2.180105   -2.121171
     40          1           0        0.893406    2.105737   -2.636374
     41          1           0       -0.633787    1.275562   -2.363550
     42          1           0       -0.603869    3.026935   -2.562497
     43          6           0       -2.562790    2.837798   -0.435456
     44          1           0       -2.741870    2.428672   -1.439775
     45          6           0       -2.431436    4.365083   -0.562128
     46          1           0       -2.181684    4.820400    0.404687
     47          1           0       -3.366482    4.816643   -0.907370
     48          1           0       -1.657516    4.653865   -1.276514
     49          6           0        4.567934    2.521137   -2.398934
     50          1           0        4.276570    3.528790   -2.709760
     51          1           0        5.554597    2.326456   -2.825968
     52          1           0        3.874315    1.808103   -2.855283
     53          8           0        2.836295    0.071042    1.682197
     54          8           0        3.326428   -1.137575    2.327771
     55          1           0        4.097648   -0.791084    2.806401
     56          8           0        8.917995    2.065838   -0.276908
     57          1           0        9.087311    2.156579   -1.225202
     58          6           0       -3.781057    2.471660    0.451110
     59          1           0       -3.837890    1.381483    0.550274
     60          1           0       -3.593475    2.858427    1.463965
     61          6           0       -5.164635    2.969955   -0.011272
     62          1           0       -5.889187    2.671921    0.756590
     63          1           0       -5.191150    4.067469   -0.032850
     64          6           0       -5.614803    2.427651   -1.376293
     65          1           0       -5.581728    1.326999   -1.359460
     66          1           0       -4.894821    2.740076   -2.144115
     67          6           0       -7.020479    2.875948   -1.828947
     68          1           0       -7.053081    3.975122   -1.771292
     69          6           0       -7.267933    2.477337   -3.292749
     70          1           0       -7.239114    1.386387   -3.410383
     71          1           0       -8.248922    2.821953   -3.639364
     72          1           0       -6.507973    2.903756   -3.957589
     73          6           0       -8.137493    2.323615   -0.928370
     74          1           0       -8.134870    1.225780   -0.936815
     75          1           0       -9.121694    2.655084   -1.278577
     76          1           0       -8.031982    2.649954    0.110955
 ---------------------------------------------------------------------

 SCF Done:  E(RHF) =  -1273.68314220     A.U. after    9 cycles

 Alpha  occ. eigenvalues --  -20.62340 -20.62013 -20.56062 -11.28458 -11.28232
 Alpha  occ. eigenvalues --  -11.24952 -11.24521 -11.23083 -11.22961 -11.22951
 Alpha  occ. eigenvalues --  -11.22905 -11.22669 -11.22657 -11.22451 -11.22398
 Alpha  occ. eigenvalues --  -11.22251 -11.22173 -11.21892 -11.21890 -11.21487
 Alpha  occ. eigenvalues --  -11.21433 -11.21362 -11.21289 -11.21286 -11.21102
 Alpha  occ. eigenvalues --  -11.21022 -11.21015 -11.20950 -11.20803 -11.20786
 Alpha  occ. eigenvalues --   -1.45645  -1.35439  -1.22086  -1.15589  -1.13917
 Alpha  occ. eigenvalues --   -1.09604  -1.07982  -1.05804  -1.05735  -1.03076
 Alpha  occ. eigenvalues --   -1.01595  -0.99392  -0.97964  -0.96325  -0.92948
 Alpha  occ. eigenvalues --   -0.92336  -0.92312  -0.91109  -0.90684  -0.86224
 Alpha  occ. eigenvalues --   -0.84259  -0.82676  -0.82519  -0.78730  -0.77832
 Alpha  occ. eigenvalues --   -0.76945  -0.75781  -0.73391  -0.72087  -0.70829
 Alpha  occ. eigenvalues --   -0.69099  -0.67115  -0.65628  -0.64605  -0.64429
 Alpha  occ. eigenvalues --   -0.63942  -0.63362  -0.62776  -0.62083  -0.61387
 Alpha  occ. eigenvalues --   -0.60579  -0.60267  -0.59232  -0.59047  -0.58313
 Alpha  occ. eigenvalues --   -0.58187  -0.57540  -0.57171  -0.56305  -0.55829
 Alpha  occ. eigenvalues --   -0.55392  -0.54560  -0.54275  -0.53896  -0.53772
 Alpha  occ. eigenvalues --   -0.53650  -0.53086  -0.52901  -0.52542  -0.51934
 Alpha  occ. eigenvalues --   -0.51000  -0.50505  -0.49869  -0.49650  -0.49028
 Alpha  occ. eigenvalues --   -0.48888  -0.48119  -0.47640  -0.47277  -0.46883
 Alpha  occ. eigenvalues --   -0.46414  -0.46104  -0.45445  -0.45199  -0.45059
 Alpha  occ. eigenvalues --   -0.44881  -0.44065  -0.43744  -0.43206  -0.42866
 Alpha  occ. eigenvalues --   -0.42847  -0.42438  -0.41645  -0.40201  -0.38888
 Alpha  occ. eigenvalues --   -0.34678
 Alpha virt. eigenvalues --    0.16039   0.20487   0.21348   0.21922   0.22336
 Alpha virt. eigenvalues --    0.23010   0.23200   0.24255   0.24346   0.25183
 Alpha virt. eigenvalues --    0.25488   0.26065   0.26547   0.26907   0.27038

 Mulliken charges:
               1
     1  C    0.194090
     2  H    0.172055
     3  C   -0.368743
     4  H    0.192243
     5  H    0.155629
     6  C    0.083462
     7  C   -0.044704
     8  C   -0.325410
     9  H    0.168069
    10  H    0.173693
    11  C   -0.341391
    12  H    0.145094
    13  H    0.184045
    14  C   -0.277106
    15  H    0.193404
    16  C    0.192003
    17  H    0.186689
    18  C   -0.209723
    19  H    0.171899
    20  C   -0.157474
    21  H    0.178034
    22  C   -0.329405
    23  H    0.164157
    24  H    0.165319
    25  C   -0.298375
    26  H    0.155442
    27  H    0.163900
    28  C   -0.029744
    29  C   -0.153213
    30  H    0.187159
    31  C   -0.325527
    32  H    0.188962
    33  H    0.150893
    34  C   -0.336063
    35  H    0.158065
    36  H    0.171326
    37  C   -0.136359
    38  H    0.154863
    39  C   -0.489933
    40  H    0.159334
    41  H    0.166304
    42  H    0.162696
    43  C   -0.155456
    44  H    0.157247
    45  C   -0.484795
    46  H    0.153254
    47  H    0.162891
    48  H    0.160796
    49  C   -0.482692
    50  H    0.168142
    51  H    0.162909
    52  H    0.169460
    53  O   -0.398308
    54  O   -0.464464
    55  H    0.459471
    56  O   -0.758818
    57  H    0.428748
    58  C   -0.308281
    59  H    0.165587
    60  H    0.151203
    61  C   -0.314552
    62  H    0.160100
    63  H    0.153393
    64  C   -0.300556
    65  H    0.146797
    66  H    0.155971
    67  C   -0.146292
    68  H    0.150742
    69  C   -0.472254
    70  H    0.152722
    71  H    0.157984
    72  H    0.156964
    73  C   -0.476295
    74  H    0.152016
    75  H    0.158150
    76  H    0.162558
 Sum of Mulliken charges =   0.00000

 Dipole moment (field-independent basis, Debye):
    X=              0.3488    Y=              1.3746    Z=             -2.1044  Tot=              2.5376
 Quadrupole moment (field-independent basis, Debye-Ang):
   XX=           -200.0064   YY=           -188.2014   ZZ=           -187.8960
   XY=              2.3920   XZ=            -10.7969   YZ=             -2.5438

 ESP charges:
               1
     1  C    0.500320
     2  H    0.012765
     3  C   -0.187153
     4  H    0.068875
     5  H    0.045018
     6  C   -0.025471
     7  C    0.372385
     8  C   -0.133124
     9  H    0.008124
    10  H    0.051878
    11  C   -0.174955
    12  H    0.025856
    13  H    0.053022
    14  C   -0.444034
    15  H    0.155895
    16  C    0.498522
    17  H    0.009087
    18  C   -0.185311
    19  H   -0.012963
    20  C    0.062081
    21  H   -0.048616
    22  C    0.059571
    23  H   -0.024401
    24  H   -0.024590
    25  C   -0.191378
    26  H    0.001947
    27  H    0.024386
    28  C    0.608267
    29  C    0.273298
    30  H   -0.067655
    31  C   -0.273029
    32  H    0.086346
    33  H    0.017879
    34  C    0.107493
    35  H   -0.019238
    36  H   -0.010439
    37  C   -0.360132
    38  H    0.025330
    39  C   -0.556781
    40  H    0.113700
    41  H    0.117505
    42  H    0.098927
    43  C    0.425206
    44  H   -0.073861
    45  C   -0.344500
    46  H    0.053226
    47  H    0.076804
    48  H    0.057403
    49  C   -0.231554
    50  H    0.031552
    51  H    0.055169
    52  H    0.036094
    53  O   -0.317178
    54  O   -0.452057
    55  H    0.430400
    56  O   -0.749033
    57  H    0.414529
    58  C    0.010242
    59  H   -0.012918
    60  H   -0.015288
    61  C   -0.108031
    62  H    0.034483
    63  H    0.012243
    64  C   -0.064410
    65  H    0.005754
    66  H   -0.007247
    67  C    0.419397
    68  H   -0.079724
    69  C   -0.331238
    70  H    0.059571
    71  H    0.069899
    72  H    0.059625
    73  C   -0.269303
    74  H    0.053902
    75  H    0.048849
    76  H    0.042784
 Sum of ESP charges =   0.00000

 Normal termination of Gaussian 09 at Fri Apr 28 13:17:31 2017.
