 Gaussian 09, Revision D.01,
 Gaussian 09:  EM64L-G09RevD.01 24-Apr-2013

 ----------------------------------------------------------------------
 #P HF/6-31G* SCF(Conver=6) NoSymm Test Pop=chelpg IOp(6/33=2) GFInput
 GFPrint
 ----------------------------------------------------------------------

 ----------------------------------------------
 MEP - Input generated by R.E.D.-III.x MOLECULE
 ----------------------------------------------
 Symbolic Z-matrix:
 Charge =  0 Multiplicity = 1

                          Input orientation:
 ---------------------------------------------------------------------
 Center     Atomic      Atomic             Coordinates (Angstroms)
 Number     Number       Type             X           Y           Z
 ---------------------------------------------------------------------
      1          6           0       -0.964789    2.000375    1.691000
      2          1           0       -0.982357    1.019932    2.182605
      3          6           0        0.387260    2.674216    1.974138
      4          1           0        0.538794    2.756411    3.054921
      5          1           0        0.336344    3.702910    1.583951
      6          6           0        1.548149    1.933938    1.335686
      7          6           0        1.428100    1.625810   -0.162164
      8          6           0        0.015835    1.015009   -0.419834
      9          1           0        0.000000    0.000000    0.000000
     10          1           0       -0.141172    0.907447   -1.498495
     11          6           0       -1.152601    1.807715    0.186230
     12          1           0       -1.239169    2.793682   -0.293885
     13          1           0       -2.097295    1.284438    0.000000
     14          6           0        2.609569    1.586590    2.079881
     15          1           0        2.618509    1.839173    3.138579
     16          6           0        3.815100    0.856222    1.562427
     17          1           0        4.729716    1.285834    1.990418
     18          6           0        3.903463    0.872777    0.025607
     19          1           0        4.209893    1.896985   -0.228836
     20          6           0        2.513646    0.580837   -0.602000
     21          1           0        2.194560   -0.383825   -0.180776
     22          6           0        2.595081    0.395339   -2.137170
     23          1           0        2.753206    1.363383   -2.623082
     24          1           0        1.633180    0.025282   -2.510275
     25          6           0        3.706094   -0.567406   -2.603701
     26          1           0        3.479722   -1.586075   -2.258429
     27          1           0        3.703483   -0.599394   -3.699303
     28          6           0        5.084762   -0.150780   -2.055971
     29          6           0        4.954955   -0.112603   -0.505972
     30          1           0        4.605109   -1.113479   -0.219800
     31          6           0        6.402871    0.000000    0.000000
     32          1           0        6.509717   -0.386456    1.017401
     33          1           0        6.731760    1.046977    0.016530
     34          6           0        7.219433   -0.822605   -1.038033
     35          1           0        8.056325   -0.233939   -1.426896
     36          1           0        7.658669   -1.720660   -0.590352
     37          6           0        6.225716   -1.218307   -2.175781
     38          1           0        5.750906   -2.158133   -1.855810
     39          6           0        5.504651    1.216026   -2.643760
     40          1           0        4.858214    2.028912   -2.302476
     41          1           0        6.528986    1.484858   -2.372930
     42          1           0        5.446498    1.200306   -3.736157
     43          6           0        6.927847   -1.590505   -3.514779
     44          1           0        7.648912   -2.368606   -3.214061
     45          6           0        7.757253   -0.484166   -4.197909
     46          1           0        7.125504    0.231050   -4.733275
     47          1           0        8.445787   -0.919671   -4.928751
     48          1           0        8.367012    0.077918   -3.484767
     49          6           0        1.569433    2.960248   -0.944929
     50          1           0        1.294365    2.835558   -1.996428
     51          1           0        0.923698    3.740269   -0.534573
     52          1           0        2.595814    3.337719   -0.902264
     53          8           0        3.790726   -0.541315    1.964523
     54          8           0        3.964527   -0.587617    3.408595
     55          1           0        3.072841   -0.847872    3.693388
     56          8           0       -2.048277    2.712435    2.293902
     57          1           0       -2.108955    3.587931    1.886480
     58          6           0        5.962069   -2.264609   -4.517619
     59          1           0        5.282781   -2.920977   -3.959591
     60          1           0        5.329028   -1.499575   -4.988865
     61          6           0        6.654509   -3.081365   -5.620981
     62          1           0        7.344291   -2.435243   -6.177598
     63          1           0        7.279630   -3.856455   -5.156780
     64          6           0        5.693032   -3.720739   -6.640297
     65          1           0        6.289630   -4.193078   -7.434871
     66          1           0        5.120571   -2.919086   -7.129333
     67          6           0        4.697292   -4.770094   -6.101310
     68          1           0        4.082222   -4.295718   -5.323349
     69          6           0        3.748665   -5.224128   -7.222434
     70          1           0        4.305553   -5.713995   -8.031616
     71          1           0        3.005930   -5.939199   -6.850590
     72          1           0        3.208667   -4.375119   -7.657347
     73          6           0        5.404202   -5.980202   -5.470425
     74          1           0        6.053337   -6.477435   -6.203021
     75          1           0        4.675483   -6.718913   -5.117724
     76          1           0        6.024974   -5.696246   -4.614493
 ---------------------------------------------------------------------

 SCF Done:  E(RHF) =  -1273.67800633     A.U. after    9 cycles

 Alpha  occ. eigenvalues --  -20.62350 -20.62023 -20.56070 -11.28471 -11.28240
 Alpha  occ. eigenvalues --  -11.24968 -11.24534 -11.23092 -11.22994 -11.22961
 Alpha  occ. eigenvalues --  -11.22931 -11.22677 -11.22635 -11.22443 -11.22408
 Alpha  occ. eigenvalues --  -11.22379 -11.22258 -11.21929 -11.21912 -11.21532
 Alpha  occ. eigenvalues --  -11.21528 -11.21463 -11.21322 -11.21306 -11.21082
 Alpha  occ. eigenvalues --  -11.21024 -11.20986 -11.20913 -11.20902 -11.20776
 Alpha  occ. eigenvalues --   -1.45654  -1.35448  -1.22093  -1.15596  -1.13907
 Alpha  occ. eigenvalues --   -1.09589  -1.07972  -1.05797  -1.05741  -1.03092
 Alpha  occ. eigenvalues --   -1.01608  -0.99429  -0.97958  -0.96339  -0.92649
 Alpha  occ. eigenvalues --   -0.92407  -0.92368  -0.91801  -0.90460  -0.86236
 Alpha  occ. eigenvalues --   -0.83954  -0.82981  -0.82604  -0.79075  -0.78438
 Alpha  occ. eigenvalues --   -0.76969  -0.74570  -0.73644  -0.71910  -0.70766
 Alpha  occ. eigenvalues --   -0.69032  -0.67099  -0.65222  -0.64652  -0.64318
 Alpha  occ. eigenvalues --   -0.63779  -0.63340  -0.62935  -0.62659  -0.61532
 Alpha  occ. eigenvalues --   -0.61172  -0.59781  -0.59362  -0.59050  -0.58213
 Alpha  occ. eigenvalues --   -0.57791  -0.57617  -0.57316  -0.56716  -0.55893
 Alpha  occ. eigenvalues --   -0.55359  -0.54922  -0.54269  -0.54214  -0.53861
 Alpha  occ. eigenvalues --   -0.53320  -0.53044  -0.52951  -0.52136  -0.51160
 Alpha  occ. eigenvalues --   -0.50862  -0.50619  -0.50275  -0.49675  -0.49063
 Alpha  occ. eigenvalues --   -0.48678  -0.48248  -0.47954  -0.47226  -0.47202
 Alpha  occ. eigenvalues --   -0.46625  -0.46119  -0.45721  -0.45270  -0.45055
 Alpha  occ. eigenvalues --   -0.44705  -0.44283  -0.43704  -0.43009  -0.42888
 Alpha  occ. eigenvalues --   -0.42695  -0.42229  -0.41520  -0.40190  -0.38877
 Alpha  occ. eigenvalues --   -0.34688
 Alpha virt. eigenvalues --    0.16026   0.20232   0.21147   0.21800   0.22338
 Alpha virt. eigenvalues --    0.22908   0.23121   0.24030   0.24337   0.24645
 Alpha virt. eigenvalues --    0.25343   0.25928   0.26460   0.26880   0.27105

 Mulliken charges:
               1
     1  C    0.194097
     2  H    0.172025
     3  C   -0.368804
     4  H    0.192279
     5  H    0.155642
     6  C    0.083553
     7  C   -0.044703
     8  C   -0.325453
     9  H    0.168007
    10  H    0.173708
    11  C   -0.341346
    12  H    0.145129
    13  H    0.184046
    14  C   -0.277458
    15  H    0.193437
    16  C    0.192849
    17  H    0.186795
    18  C   -0.209976
    19  H    0.171917
    20  C   -0.157448
    21  H    0.177920
    22  C   -0.330010
    23  H    0.165287
    24  H    0.165238
    25  C   -0.298992
    26  H    0.154482
    27  H    0.162728
    28  C   -0.023555
    29  C   -0.155981
    30  H    0.187805
    31  C   -0.325623
    32  H    0.188535
    33  H    0.151409
    34  C   -0.328509
    35  H    0.159329
    36  H    0.167176
    37  C   -0.155612
    38  H    0.156221
    39  C   -0.486456
    40  H    0.158273
    41  H    0.167219
    42  H    0.161076
    43  C   -0.135208
    44  H    0.152572
    45  C   -0.485727
    46  H    0.155287
    47  H    0.162578
    48  H    0.161201
    49  C   -0.482596
    50  H    0.168181
    51  H    0.162908
    52  H    0.169472
    53  O   -0.398515
    54  O   -0.464355
    55  H    0.459442
    56  O   -0.758781
    57  H    0.428766
    58  C   -0.309714
    59  H    0.159212
    60  H    0.149158
    61  C   -0.314166
    62  H    0.160082
    63  H    0.154455
    64  C   -0.297211
    65  H    0.151063
    66  H    0.150511
    67  C   -0.152594
    68  H    0.156131
    69  C   -0.471585
    70  H    0.152393
    71  H    0.158060
    72  H    0.156944
    73  C   -0.476469
    74  H    0.152137
    75  H    0.158333
    76  H    0.161778
 Sum of Mulliken charges =   0.00000

 Dipole moment (field-independent basis, Debye):
    X=             -0.7263    Y=              1.6193    Z=             -1.7596  Tot=              2.4992
 Quadrupole moment (field-independent basis, Debye-Ang):
   XX=           -205.3803   YY=           -185.0391   ZZ=           -196.0162
   XY=              4.8199   XZ=             -1.9953   YZ=             -2.5007

 ESP charges:
               1
     1  C    0.516475
     2  H    0.007759
     3  C   -0.181981
     4  H    0.066777
     5  H    0.042525
     6  C   -0.060133
     7  C    0.409292
     8  C   -0.078775
     9  H   -0.008090
    10  H    0.034364
    11  C   -0.192970
    12  H    0.025208
    13  H    0.052891
    14  C   -0.426336
    15  H    0.155518
    16  C    0.496822
    17  H    0.002930
    18  C   -0.187372
    19  H   -0.010694
    20  C   -0.002774
    21  H   -0.040614
    22  C    0.150671
    23  H   -0.031171
    24  H   -0.046658
    25  C   -0.221987
    26  H    0.024435
    27  H    0.010813
    28  C    0.444134
    29  C    0.304318
    30  H   -0.084239
    31  C   -0.193859
    32  H    0.070925
    33  H    0.001861
    34  C   -0.034281
    35  H    0.019807
    36  H   -0.001123
    37  C   -0.029220
    38  H   -0.023991
    39  C   -0.488936
    40  H    0.096815
    41  H    0.104146
    42  H    0.095302
    43  C    0.160923
    44  H   -0.020103
    45  C   -0.257937
    46  H    0.051555
    47  H    0.049635
    48  H    0.052870
    49  C   -0.215652
    50  H    0.018569
    51  H    0.048772
    52  H    0.035363
    53  O   -0.313707
    54  O   -0.453849
    55  H    0.430764
    56  O   -0.751745
    57  H    0.414586
    58  C   -0.093925
    59  H    0.000096
    60  H    0.029512
    61  C    0.064979
    62  H    0.008877
    63  H   -0.018449
    64  C   -0.178773
    65  H    0.015144
    66  H    0.016802
    67  C    0.525226
    68  H   -0.109567
    69  C   -0.373219
    70  H    0.071228
    71  H    0.074981
    72  H    0.065809
    73  C   -0.295899
    74  H    0.051504
    75  H    0.047319
    76  H    0.059727
 Sum of ESP charges =   0.00000

 Normal termination of Gaussian 09 at Fri Apr 28 12:29:25 2017.
