 Gaussian 09, Revision D.01,
 Gaussian 09:  EM64L-G09RevD.01 24-Apr-2013

 ----------------------------------------------------------------------
 #P HF/6-31G* SCF(Conver=6) NoSymm Test Pop=chelpg IOp(6/33=2) GFInput
 GFPrint
 ----------------------------------------------------------------------

 ----------------------------------------------
 MEP - Input generated by R.E.D.-III.x MOLECULE
 ----------------------------------------------
 Symbolic Z-matrix:
 Charge =  0 Multiplicity = 1

                          Input orientation:
 ---------------------------------------------------------------------
 Center     Atomic      Atomic             Coordinates (Angstroms)
 Number     Number       Type             X           Y           Z
 ---------------------------------------------------------------------
      1          6           0        1.758711   -1.248591    0.049724
      2          1           0        1.883585   -1.204326   -1.039178
      3          6           0        3.146987   -1.263061    0.708948
      4          1           0        3.726292   -2.110595    0.329634
      5          1           0        3.003500   -1.436725    1.787085
      6          6           0        3.905931    0.032553    0.488406
      7          6           0        3.174025    1.330496    0.852211
      8          6           0        1.744064    1.272331    0.231129
      9          1           0        1.838283    1.390470   -0.856952
     10          1           0        1.159475    2.127659    0.586803
     11          6           0        0.968725   -0.024181    0.511803
     12          1           0        0.754384   -0.119941    1.586534
     13          1           0        0.000000    0.000000    0.000000
     14          6           0        5.155518    0.000000    0.000000
     15          1           0        5.606041   -0.962267   -0.236215
     16          6           0        6.004911    1.210665   -0.259242
     17          1           0        7.037314    1.023761    0.062344
     18          6           0        5.464728    2.474169    0.434861
     19          1           0        5.702429    2.337777    1.499295
     20          6           0        3.926386    2.574477    0.260621
     21          1           0        3.747661    2.549530   -0.824379
     22          6           0        3.375176    3.925014    0.776421
     23          1           0        3.380311    3.936789    1.871101
     24          1           0        2.324841    4.027457    0.480114
     25          6           0        4.147445    5.163328    0.276837
     26          1           0        4.025367    5.260190   -0.811362
     27          1           0        3.691914    6.053580    0.721517
     28          6           0        5.653949    5.065938    0.595712
     29          6           0        6.152733    3.752030   -0.069006
     30          1           0        5.886172    3.847045   -1.130611
     31          6           0        7.682779    3.840051    0.000000
     32          1           0        8.163235    3.225404   -0.766261
     33          1           0        8.052328    3.490389    0.972539
     34          6           0        7.967363    5.354872   -0.191785
     35          1           0        8.641195    5.727355    0.589112
     36          1           0        8.466789    5.544131   -1.146364
     37          6           0        6.590081    6.100236   -0.123212
     38          1           0        6.204991    6.194640   -1.150944
     39          6           0        5.898787    5.094590    2.121613
     40          1           0        5.431364    4.251463    2.636927
     41          1           0        6.965527    5.068542    2.363861
     42          1           0        5.487364    6.008415    2.562980
     43          6           0        6.720899    7.540939    0.438065
     44          1           0        7.160938    7.465266    1.442801
     45          6           0        5.372134    8.269550    0.566044
     46          1           0        4.853517    8.309550   -0.400295
     47          1           0        5.507946    9.299173    0.910353
     48          1           0        4.706720    7.781571    1.281461
     49          6           0        3.066826    1.409259    2.399958
     50          1           0        2.387067    2.207821    2.711630
     51          1           0        2.685304    0.478578    2.826609
     52          1           0        4.044333    1.594387    2.855934
     53          8           0        6.065338    1.510111   -1.681230
     54          8           0        6.805226    0.436113   -2.326840
     55          1           0        6.091843   -0.016971   -2.806151
     56          8           0        1.054365   -2.473179    0.270573
     57          1           0        0.885280   -2.567269    1.218582
     58          6           0        7.696223    8.360020   -0.446019
     59          1           0        8.631198    7.801792   -0.560894
     60          1           0        7.265290    8.430031   -1.455969
     61          6           0        8.036703    9.786954    0.029345
     62          1           0        8.708633   10.235591   -0.713454
     63          1           0        7.134773   10.410994    0.013349
     64          6           0        8.673436    9.900649    1.427570
     65          1           0        7.956810    9.547489    2.181546
     66          1           0        8.834289   10.966656    1.647046
     67          6           0       10.009765    9.158550    1.641683
     68          1           0        9.848602    8.091177    1.432468
     69          6           0       11.117402    9.659306    0.700995
     70          1           0       11.301752   10.730858    0.852996
     71          1           0       12.058925    9.130883    0.889141
     72          1           0       10.862674    9.511470   -0.353375
     73          6           0       10.454174    9.277764    3.108419
     74          1           0       10.636702   10.326137    3.377526
     75          1           0       11.381260    8.722237    3.290507
     76          1           0        9.689904    8.888031    3.790788
 ---------------------------------------------------------------------

 SCF Done:  E(RHF) =  -1273.68193073     A.U. after    9 cycles

 Alpha  occ. eigenvalues --  -20.62354 -20.62028 -20.56070 -11.28475 -11.28239
 Alpha  occ. eigenvalues --  -11.24966 -11.24533 -11.23092 -11.22978 -11.22962
 Alpha  occ. eigenvalues --  -11.22922 -11.22682 -11.22678 -11.22410 -11.22370
 Alpha  occ. eigenvalues --  -11.22263 -11.22223 -11.21926 -11.21906 -11.21504
 Alpha  occ. eigenvalues --  -11.21457 -11.21389 -11.21313 -11.21241 -11.21162
 Alpha  occ. eigenvalues --  -11.21048 -11.21011 -11.20950 -11.20841 -11.20794
 Alpha  occ. eigenvalues --   -1.45660  -1.35447  -1.22101  -1.15606  -1.13939
 Alpha  occ. eigenvalues --   -1.09677  -1.07934  -1.05789  -1.05662  -1.03098
 Alpha  occ. eigenvalues --   -1.01563  -0.99318  -0.97986  -0.96343  -0.92977
 Alpha  occ. eigenvalues --   -0.92392  -0.92307  -0.91197  -0.90725  -0.86237
 Alpha  occ. eigenvalues --   -0.84357  -0.82727  -0.82671  -0.79041  -0.78177
 Alpha  occ. eigenvalues --   -0.77074  -0.74812  -0.73014  -0.72122  -0.70841
 Alpha  occ. eigenvalues --   -0.69110  -0.67127  -0.65683  -0.64463  -0.64428
 Alpha  occ. eigenvalues --   -0.64009  -0.63259  -0.62910  -0.62744  -0.61374
 Alpha  occ. eigenvalues --   -0.60520  -0.60162  -0.59138  -0.58856  -0.58510
 Alpha  occ. eigenvalues --   -0.58054  -0.57538  -0.57202  -0.56123  -0.56098
 Alpha  occ. eigenvalues --   -0.55484  -0.55057  -0.54467  -0.54182  -0.53702
 Alpha  occ. eigenvalues --   -0.53235  -0.53102  -0.52911  -0.52230  -0.51909
 Alpha  occ. eigenvalues --   -0.51344  -0.50351  -0.49689  -0.49635  -0.49048
 Alpha  occ. eigenvalues --   -0.48773  -0.48093  -0.47635  -0.47384  -0.47062
 Alpha  occ. eigenvalues --   -0.46797  -0.46249  -0.45504  -0.45294  -0.45071
 Alpha  occ. eigenvalues --   -0.44371  -0.44028  -0.43771  -0.43112  -0.42919
 Alpha  occ. eigenvalues --   -0.42852  -0.42425  -0.41613  -0.40221  -0.38903
 Alpha  occ. eigenvalues --   -0.34690
 Alpha virt. eigenvalues --    0.16026   0.20175   0.21105   0.21675   0.22221
 Alpha virt. eigenvalues --    0.22640   0.23358   0.23726   0.24283   0.25041
 Alpha virt. eigenvalues --    0.25612   0.26040   0.26510   0.26774   0.27105

 Mulliken charges:
               1
     1  C    0.194118
     2  H    0.172049
     3  C   -0.368746
     4  H    0.192269
     5  H    0.155628
     6  C    0.083469
     7  C   -0.044773
     8  C   -0.325442
     9  H    0.168079
    10  H    0.173719
    11  C   -0.341400
    12  H    0.145088
    13  H    0.184081
    14  C   -0.277079
    15  H    0.193442
    16  C    0.191984
    17  H    0.186650
    18  C   -0.209730
    19  H    0.171947
    20  C   -0.157504
    21  H    0.178045
    22  C   -0.329449
    23  H    0.164135
    24  H    0.165441
    25  C   -0.298426
    26  H    0.155484
    27  H    0.164076
    28  C   -0.029783
    29  C   -0.153226
    30  H    0.187251
    31  C   -0.325488
    32  H    0.189258
    33  H    0.151043
    34  C   -0.339773
    35  H    0.159966
    36  H    0.171449
    37  C   -0.135657
    38  H    0.155170
    39  C   -0.489956
    40  H    0.159514
    41  H    0.165890
    42  H    0.162899
    43  C   -0.154340
    44  H    0.155961
    45  C   -0.485391
    46  H    0.153304
    47  H    0.164096
    48  H    0.160833
    49  C   -0.482586
    50  H    0.168167
    51  H    0.162952
    52  H    0.169427
    53  O   -0.398360
    54  O   -0.464436
    55  H    0.459505
    56  O   -0.758817
    57  H    0.428762
    58  C   -0.314195
    59  H    0.169242
    60  H    0.151636
    61  C   -0.317533
    62  H    0.159593
    63  H    0.158579
    64  C   -0.302640
    65  H    0.154667
    66  H    0.150959
    67  C   -0.154816
    68  H    0.157594
    69  C   -0.476797
    70  H    0.151981
    71  H    0.158470
    72  H    0.162772
    73  C   -0.471403
    74  H    0.152610
    75  H    0.158113
    76  H    0.156378
 Sum of Mulliken charges =   0.00000

 Dipole moment (field-independent basis, Debye):
    X=             -1.3337    Y=              0.3820    Z=              2.0846  Tot=              2.5040
 Quadrupole moment (field-independent basis, Debye-Ang):
   XX=           -210.1636   YY=           -196.1317   ZZ=           -187.9992
   XY=             -6.3491   XZ=              7.9976   YZ=              0.1517

 ESP charges:
               1
     1  C    0.511081
     2  H    0.002726
     3  C   -0.151577
     4  H    0.058247
     5  H    0.033121
     6  C   -0.050553
     7  C    0.386960
     8  C   -0.096378
     9  H   -0.005912
    10  H    0.036815
    11  C   -0.156652
    12  H    0.015901
    13  H    0.044068
    14  C   -0.444882
    15  H    0.158113
    16  C    0.502725
    17  H    0.004931
    18  C   -0.146877
    19  H   -0.024023
    20  C    0.046074
    21  H   -0.045346
    22  C    0.036180
    23  H   -0.022157
    24  H   -0.017679
    25  C   -0.153051
    26  H   -0.007360
    27  H    0.013877
    28  C    0.557093
    29  C    0.280568
    30  H   -0.063108
    31  C   -0.299502
    32  H    0.099766
    33  H    0.022868
    34  C    0.043796
    35  H    0.017475
    36  H    0.002919
    37  C   -0.291177
    38  H    0.012324
    39  C   -0.488289
    40  H    0.100390
    41  H    0.096110
    42  H    0.079596
    43  C    0.425633
    44  H   -0.080650
    45  C   -0.386036
    46  H    0.058820
    47  H    0.085805
    48  H    0.072176
    49  C   -0.233090
    50  H    0.029747
    51  H    0.053965
    52  H    0.037198
    53  O   -0.330741
    54  O   -0.450488
    55  H    0.432119
    56  O   -0.751611
    57  H    0.412395
    58  C    0.015372
    59  H   -0.033169
    60  H   -0.020235
    61  C   -0.036136
    62  H   -0.001694
    63  H    0.004415
    64  C   -0.072246
    65  H   -0.016501
    66  H   -0.004356
    67  C    0.522594
    68  H   -0.123454
    69  C   -0.315070
    70  H    0.054102
    71  H    0.051722
    72  H    0.064669
    73  C   -0.369521
    74  H    0.065455
    75  H    0.076230
    76  H    0.063375
 Sum of ESP charges =   0.00000

 Normal termination of Gaussian 09 at Fri Apr 28 13:20:40 2017.
