 Gaussian 09, Revision D.01,
 Gaussian 09:  EM64L-G09RevD.01 24-Apr-2013

 ----------------------------------------------------------------------
 #P HF/6-31G* SCF(Conver=6) NoSymm Test Pop=chelpg IOp(6/33=2) GFInput
 GFPrint
 ----------------------------------------------------------------------

 ----------------------------------------------
 MEP - Input generated by R.E.D.-III.x MOLECULE
 ----------------------------------------------
 Symbolic Z-matrix:
 Charge =  0 Multiplicity = 1

                          Input orientation:
 ---------------------------------------------------------------------
 Center     Atomic      Atomic             Coordinates (Angstroms)
 Number     Number       Type             X           Y           Z
 ---------------------------------------------------------------------
      1          6           0       -0.963849    2.005977    1.685834
      2          1           0       -0.979063    1.027560    2.181538
      3          6           0        0.387799    2.682899    1.963573
      4          1           0        0.541402    2.769857    3.043683
      5          1           0        0.334795    3.709831    1.568988
      6          6           0        1.548224    1.941259    1.325935
      7          6           0        1.425829    1.626911   -0.170291
      8          6           0        0.013806    1.013571   -0.423311
      9          1           0        0.000000    0.000000    0.000000
     10          1           0       -0.144987    0.902031   -1.501342
     11          6           0       -1.154409    1.807024    0.182179
     12          1           0       -1.243363    2.791033   -0.301535
     13          1           0       -2.098797    1.281777    0.000000
     14          6           0        2.611600    1.598099    2.069305
     15          1           0        2.622689    1.855321    3.126860
     16          6           0        3.816592    0.866221    1.552592
     17          1           0        4.731718    1.298323    1.976916
     18          6           0        3.901655    0.874717    0.015492
     19          1           0        4.209668    1.896664   -0.246801
     20          6           0        2.511338    0.580938   -0.607222
     21          1           0        2.193040   -0.382515   -0.182683
     22          6           0        2.595058    0.391172   -2.140522
     23          1           0        2.751295    1.358566   -2.628652
     24          1           0        1.634847    0.017762   -2.514812
     25          6           0        3.708576   -0.569240   -2.605872
     26          1           0        3.488002   -1.587591   -2.255414
     27          1           0        3.694244   -0.606595   -3.699567
     28          6           0        5.090234   -0.150591   -2.061432
     29          6           0        4.952762   -0.113174   -0.513499
     30          1           0        4.602820   -1.115574   -0.230776
     31          6           0        6.393981    0.000000    0.000000
     32          1           0        6.494154   -0.370536    1.023945
     33          1           0        6.729199    1.045107    0.000913
     34          6           0        7.208134   -0.845142   -1.017553
     35          1           0        8.074962   -0.284286   -1.387502
     36          1           0        7.603949   -1.750529   -0.548399
     37          6           0        6.245369   -1.203582   -2.201745
     38          1           0        5.790949   -2.183122   -1.984100
     39          6           0        5.530371    1.207190   -2.655212
     40          1           0        4.847959    2.020010   -2.393408
     41          1           0        6.526576    1.499389   -2.309525
     42          1           0        5.567220    1.158760   -3.748519
     43          6           0        6.993428   -1.348609   -3.552697
     44          1           0        7.512675   -0.398674   -3.752868
     45          6           0        6.057635   -1.636663   -4.740025
     46          1           0        5.456865   -2.536468   -4.556302
     47          1           0        6.625321   -1.799469   -5.660968
     48          1           0        5.369432   -0.810920   -4.933374
     49          6           0        1.564351    2.958182   -0.958888
     50          1           0        1.289372    2.828405   -2.009784
     51          1           0        0.916903    3.738507   -0.551897
     52          1           0        2.589876    3.338092   -0.917771
     53          8           0        3.793601   -0.529559    1.960748
     54          8           0        3.968149   -0.569698    3.404882
     55          1           0        3.076698   -0.829179    3.691111
     56          8           0       -2.047215    2.718894    2.287948
     57          1           0       -2.110732    3.592237    1.876365
     58          6           0        8.080560   -2.447516   -3.446656
     59          1           0        8.670533   -2.286444   -2.536815
     60          1           0        7.580126   -3.418023   -3.316472
     61          6           0        9.060016   -2.514013   -4.630957
     62          1           0        8.538880   -2.815912   -5.546623
     63          1           0        9.443648   -1.502078   -4.824395
     64          6           0       10.266671   -3.442208   -4.398319
     65          1           0       10.820075   -3.082207   -3.518906
     66          1           0       10.955239   -3.344051   -5.250791
     67          6           0        9.959142   -4.941800   -4.199058
     68          1           0        9.283299   -5.042948   -3.337843
     69          6           0        9.264231   -5.565587   -5.419824
     70          1           0        9.890861   -5.468743   -6.316111
     71          1           0        9.077046   -6.633560   -5.259990
     72          1           0        8.300856   -5.091663   -5.634204
     73          6           0       11.249145   -5.707523   -3.863906
     74          1           0       11.966562   -5.646682   -4.692499
     75          1           0       11.045873   -6.768381   -3.678157
     76          1           0       11.736449   -5.298092   -2.971549
 ---------------------------------------------------------------------

 SCF Done:  E(RHF) =  -1273.68346035     A.U. after    9 cycles

 Alpha  occ. eigenvalues --  -20.62351 -20.62025 -20.56070 -11.28472 -11.28240
 Alpha  occ. eigenvalues --  -11.24962 -11.24533 -11.23092 -11.22974 -11.22960
 Alpha  occ. eigenvalues --  -11.22918 -11.22679 -11.22678 -11.22410 -11.22274
 Alpha  occ. eigenvalues --  -11.22270 -11.22260 -11.21916 -11.21901 -11.21498
 Alpha  occ. eigenvalues --  -11.21443 -11.21386 -11.21308 -11.21207 -11.21140
 Alpha  occ. eigenvalues --  -11.21026 -11.20922 -11.20902 -11.20830 -11.20806
 Alpha  occ. eigenvalues --   -1.45659  -1.35448  -1.22097  -1.15602  -1.13932
 Alpha  occ. eigenvalues --   -1.09600  -1.07980  -1.05797  -1.05726  -1.03091
 Alpha  occ. eigenvalues --   -1.01576  -0.99450  -0.97981  -0.96352  -0.92946
 Alpha  occ. eigenvalues --   -0.92323  -0.92278  -0.90966  -0.90704  -0.86234
 Alpha  occ. eigenvalues --   -0.84022  -0.82693  -0.82488  -0.79222  -0.78267
 Alpha  occ. eigenvalues --   -0.77067  -0.74694  -0.73739  -0.72076  -0.70826
 Alpha  occ. eigenvalues --   -0.69098  -0.67123  -0.65646  -0.64621  -0.64444
 Alpha  occ. eigenvalues --   -0.63915  -0.63490  -0.62811  -0.61557  -0.61347
 Alpha  occ. eigenvalues --   -0.61215  -0.60052  -0.59373  -0.59060  -0.58365
 Alpha  occ. eigenvalues --   -0.57823  -0.57564  -0.56960  -0.56285  -0.55946
 Alpha  occ. eigenvalues --   -0.55615  -0.54701  -0.54400  -0.54030  -0.53807
 Alpha  occ. eigenvalues --   -0.53586  -0.53090  -0.52930  -0.52555  -0.51933
 Alpha  occ. eigenvalues --   -0.50636  -0.50171  -0.49816  -0.49607  -0.49036
 Alpha  occ. eigenvalues --   -0.48827  -0.48190  -0.47575  -0.47361  -0.46989
 Alpha  occ. eigenvalues --   -0.46703  -0.46141  -0.45507  -0.45153  -0.45072
 Alpha  occ. eigenvalues --   -0.44602  -0.44042  -0.43454  -0.43423  -0.43054
 Alpha  occ. eigenvalues --   -0.42867  -0.42441  -0.41696  -0.40217  -0.38872
 Alpha  occ. eigenvalues --   -0.34689
 Alpha virt. eigenvalues --    0.16025   0.20537   0.21378   0.21914   0.22262
 Alpha virt. eigenvalues --    0.22945   0.23176   0.24233   0.24345   0.24958
 Alpha virt. eigenvalues --    0.25643   0.26189   0.26471   0.26784   0.27231

 Mulliken charges:
               1
     1  C    0.194100
     2  H    0.172031
     3  C   -0.368748
     4  H    0.192267
     5  H    0.155650
     6  C    0.083576
     7  C   -0.044728
     8  C   -0.325401
     9  H    0.168073
    10  H    0.173706
    11  C   -0.341399
    12  H    0.145081
    13  H    0.184073
    14  C   -0.277335
    15  H    0.193450
    16  C    0.192041
    17  H    0.186620
    18  C   -0.209723
    19  H    0.171999
    20  C   -0.157546
    21  H    0.178075
    22  C   -0.329452
    23  H    0.164226
    24  H    0.165372
    25  C   -0.298339
    26  H    0.155314
    27  H    0.164165
    28  C   -0.030389
    29  C   -0.153038
    30  H    0.187058
    31  C   -0.325556
    32  H    0.188948
    33  H    0.151007
    34  C   -0.335865
    35  H    0.157944
    36  H    0.170882
    37  C   -0.136572
    38  H    0.154886
    39  C   -0.489923
    40  H    0.159333
    41  H    0.166118
    42  H    0.163361
    43  C   -0.148985
    44  H    0.151691
    45  C   -0.485621
    46  H    0.152847
    47  H    0.164090
    48  H    0.161168
    49  C   -0.482717
    50  H    0.168215
    51  H    0.162935
    52  H    0.169455
    53  O   -0.398330
    54  O   -0.464398
    55  H    0.459470
    56  O   -0.758793
    57  H    0.428764
    58  C   -0.312062
    59  H    0.165775
    60  H    0.151828
    61  C   -0.312829
    62  H    0.158368
    63  H    0.153848
    64  C   -0.298412
    65  H    0.151710
    66  H    0.150369
    67  C   -0.151962
    68  H    0.157796
    69  C   -0.476716
    70  H    0.151600
    71  H    0.158299
    72  H    0.161317
    73  C   -0.471899
    74  H    0.151851
    75  H    0.158022
    76  H    0.157967
 Sum of Mulliken charges =   0.00000

 Dipole moment (field-independent basis, Debye):
    X=             -0.7776    Y=              1.6897    Z=             -1.7532  Tot=              2.5561
 Quadrupole moment (field-independent basis, Debye-Ang):
   XX=           -206.6379   YY=           -185.0202   ZZ=           -195.6616
   XY=              6.5297   XZ=             -1.2431   YZ=             -2.7015

 ESP charges:
               1
     1  C    0.487906
     2  H    0.009613
     3  C   -0.146935
     4  H    0.060672
     5  H    0.032807
     6  C   -0.071314
     7  C    0.441412
     8  C   -0.132144
     9  H   -0.001293
    10  H    0.043222
    11  C   -0.136510
    12  H    0.010830
    13  H    0.043226
    14  C   -0.435792
    15  H    0.156578
    16  C    0.495964
    17  H    0.009910
    18  C   -0.186570
    19  H   -0.015453
    20  C    0.034958
    21  H   -0.042786
    22  C    0.062498
    23  H   -0.023914
    24  H   -0.023715
    25  C   -0.200823
    26  H    0.006011
    27  H    0.020723
    28  C    0.601572
    29  C    0.282666
    30  H   -0.076278
    31  C   -0.284184
    32  H    0.090639
    33  H    0.017490
    34  C    0.084827
    35  H   -0.007005
    36  H   -0.011116
    37  C   -0.214533
    38  H   -0.004057
    39  C   -0.538385
    40  H    0.109954
    41  H    0.109061
    42  H    0.094567
    43  C    0.203534
    44  H   -0.034719
    45  C   -0.309893
    46  H    0.055491
    47  H    0.060718
    48  H    0.067136
    49  C   -0.238841
    50  H    0.026283
    51  H    0.056296
    52  H    0.035298
    53  O   -0.318103
    54  O   -0.451887
    55  H    0.430772
    56  O   -0.748662
    57  H    0.413439
    58  C    0.048644
    59  H   -0.028225
    60  H   -0.000860
    61  C    0.001917
    62  H    0.006658
    63  H   -0.004068
    64  C   -0.165825
    65  H    0.024691
    66  H    0.020559
    67  C    0.484004
    68  H   -0.100564
    69  C   -0.307542
    70  H    0.057906
    71  H    0.054466
    72  H    0.055785
    73  C   -0.335353
    74  H    0.060836
    75  H    0.069145
    76  H    0.056664
 Sum of ESP charges =   0.00000

 Normal termination of Gaussian 09 at Fri Apr 28 12:37:30 2017.
