 Gaussian 09, Revision D.01,
 Gaussian 09:  EM64L-G09RevD.01 24-Apr-2013

 ----------------------------------------------------------------------
 #P HF/6-31G* SCF(Conver=6) NoSymm Test Pop=chelpg IOp(6/33=2) GFInput
 GFPrint
 ----------------------------------------------------------------------

 ----------------------------------------------
 MEP - Input generated by R.E.D.-III.x MOLECULE
 ----------------------------------------------
 Symbolic Z-matrix:
 Charge =  0 Multiplicity = 1

                          Input orientation:
 ---------------------------------------------------------------------
 Center     Atomic      Atomic             Coordinates (Angstroms)
 Number     Number       Type             X           Y           Z
 ---------------------------------------------------------------------
      1          6           0        7.509914    2.150316   -0.051433
      2          1           0        7.405146    2.069653    1.037495
      3          6           0        6.758449    0.982966   -0.710846
      4          1           0        7.148224    0.032963   -0.332202
      5          1           0        6.981917    1.008028   -1.789053
      6          6           0        5.259028    1.061117   -0.489814
      7          6           0        4.577387    2.385907   -0.854520
      8          6           0        5.411670    3.547933   -0.231868
      9          1           0        5.260928    3.532562    0.856147
     10          1           0        5.018425    4.506833   -0.586348
     11          6           0        6.920969    3.483577   -0.512401
     12          1           0        7.118653    3.610809   -1.587072
     13          1           0        7.433083    4.305844    0.000000
     14          6           0        4.599332    0.000000    0.000000
     15          1           0        5.155426   -0.905109    0.237170
     16          6           0        3.120940   -0.043407    0.258944
     17          1           0        2.709466   -1.009214   -0.060596
     18          6           0        2.362833    1.100619   -0.438269
     19          1           0        2.347760    0.824973   -1.502191
     20          6           0        3.123792    2.441863   -0.265175
     21          1           0        3.240806    2.579032    0.819844
     22          6           0        2.300300    3.645140   -0.784200
     23          1           0        2.291465    3.647170   -1.878876
     24          1           0        2.791849    4.578547   -0.486469
     25          6           0        0.839653    3.681362   -0.289782
     26          1           0        0.821865    3.841039    0.797735
     27          1           0        0.345101    4.547849   -0.740456
     28          6           0        0.096620    2.367610   -0.607054
     29          6           0        0.916551    1.230115    0.063295
     30          1           0        0.983382    1.509931    1.123610
     31          6           0        0.000000    0.000000    0.000000
     32          1           0        0.239393   -0.727213    0.780796
     33          1           0        0.101518   -0.516591   -0.963070
     34          6           0       -1.425548    0.597696    0.161431
     35          1           0       -2.085496    0.250058   -0.642244
     36          1           0       -1.889914    0.278607    1.099718
     37          6           0       -1.282069    2.154820    0.110196
     38          1           0       -1.138198    2.516134    1.138839
     39          6           0       -0.056971    2.177907   -2.133133
     40          1           0        0.905979    2.108122   -2.645613
     41          1           0       -0.618023    1.270881   -2.377814
     42          1           0       -0.594926    3.023133   -2.575628
     43          6           0       -2.547965    2.847859   -0.452286
     44          1           0       -2.692613    2.479610   -1.478520
     45          6           0       -2.434217    4.382067   -0.530216
     46          1           0       -2.124375    4.818273    0.426011
     47          1           0       -3.400919    4.824300   -0.799090
     48          1           0       -1.711813    4.701118   -1.285793
     49          6           0        4.572034    2.519033   -2.402328
     50          1           0        4.283179    3.527157   -2.713955
     51          1           0        5.558452    2.321729   -2.828661
     52          1           0        3.876935    1.807373   -2.858583
     53          8           0        2.837005    0.073794    1.680558
     54          8           0        3.324675   -1.134638    2.328383
     55          1           0        4.095239   -0.788414    2.808262
     56          8           0        8.919898    2.065737   -0.273398
     57          1           0        9.090720    2.156509   -1.221418
     58          6           0       -3.835248    2.441557    0.316281
     59          1           0       -4.684866    2.885076   -0.219398
     60          1           0       -3.973625    1.355084    0.245740
     61          6           0       -3.903601    2.848541    1.797879
     62          1           0       -3.035350    2.439214    2.329587
     63          1           0       -3.825038    3.938410    1.893017
     64          6           0       -5.168408    2.354049    2.525688
     65          1           0       -5.073329    2.594031    3.595177
     66          1           0       -5.199125    1.256516    2.464052
     67          6           0       -6.521819    2.906968    2.030051
     68          1           0       -6.630358    2.653419    0.965860
     69          6           0       -7.678030    2.229654    2.783342
     70          1           0       -7.627492    2.450341    3.857424
     71          1           0       -8.650448    2.579389    2.418100
     72          1           0       -7.647510    1.140281    2.666118
     73          6           0       -6.615141    4.435373    2.162647
     74          1           0       -6.489785    4.743555    3.208929
     75          1           0       -7.592541    4.798519    1.824945
     76          1           0       -5.850848    4.949253    1.570748
 ---------------------------------------------------------------------

 SCF Done:  E(RHF) =  -1273.68281859     A.U. after    9 cycles

 Alpha  occ. eigenvalues --  -20.62354 -20.62027 -20.56069 -11.28471 -11.28239
 Alpha  occ. eigenvalues --  -11.24964 -11.24531 -11.23090 -11.22980 -11.22960
 Alpha  occ. eigenvalues --  -11.22924 -11.22677 -11.22650 -11.22409 -11.22265
 Alpha  occ. eigenvalues --  -11.22261 -11.22251 -11.21908 -11.21800 -11.21505
 Alpha  occ. eigenvalues --  -11.21369 -11.21309 -11.21288 -11.21225 -11.21139
 Alpha  occ. eigenvalues --  -11.21032 -11.20905 -11.20887 -11.20887 -11.20853
 Alpha  occ. eigenvalues --   -1.45658  -1.35447  -1.22100  -1.15609  -1.13947
 Alpha  occ. eigenvalues --   -1.09549  -1.07938  -1.05790  -1.05668  -1.03090
 Alpha  occ. eigenvalues --   -1.01508  -0.99423  -0.97954  -0.96373  -0.92945
 Alpha  occ. eigenvalues --   -0.92305  -0.92258  -0.90922  -0.90783  -0.86235
 Alpha  occ. eigenvalues --   -0.84061  -0.82889  -0.82690  -0.79304  -0.78276
 Alpha  occ. eigenvalues --   -0.77023  -0.75204  -0.72724  -0.71644  -0.70816
 Alpha  occ. eigenvalues --   -0.69136  -0.67111  -0.65715  -0.64510  -0.64424
 Alpha  occ. eigenvalues --   -0.63913  -0.63410  -0.62796  -0.62165  -0.61370
 Alpha  occ. eigenvalues --   -0.61017  -0.60059  -0.59275  -0.59069  -0.58198
 Alpha  occ. eigenvalues --   -0.57663  -0.57545  -0.57031  -0.56221  -0.55981
 Alpha  occ. eigenvalues --   -0.55705  -0.54778  -0.54270  -0.54075  -0.53733
 Alpha  occ. eigenvalues --   -0.53576  -0.53138  -0.52915  -0.52757  -0.51945
 Alpha  occ. eigenvalues --   -0.50566  -0.50483  -0.49758  -0.49665  -0.49442
 Alpha  occ. eigenvalues --   -0.49045  -0.48106  -0.47657  -0.47256  -0.47101
 Alpha  occ. eigenvalues --   -0.46525  -0.46082  -0.45385  -0.45170  -0.44648
 Alpha  occ. eigenvalues --   -0.44402  -0.44222  -0.43662  -0.43512  -0.42892
 Alpha  occ. eigenvalues --   -0.42709  -0.42039  -0.41729  -0.40221  -0.38973
 Alpha  occ. eigenvalues --   -0.34688
 Alpha virt. eigenvalues --    0.16029   0.20398   0.21249   0.21761   0.22258
 Alpha virt. eigenvalues --    0.23027   0.23068   0.23959   0.24264   0.24599
 Alpha virt. eigenvalues --    0.25378   0.26039   0.26582   0.26707   0.27375

 Mulliken charges:
               1
     1  C    0.194092
     2  H    0.172061
     3  C   -0.368729
     4  H    0.192273
     5  H    0.155618
     6  C    0.083435
     7  C   -0.044563
     8  C   -0.325431
     9  H    0.168077
    10  H    0.173717
    11  C   -0.341393
    12  H    0.145083
    13  H    0.184070
    14  C   -0.277045
    15  H    0.193405
    16  C    0.192096
    17  H    0.186750
    18  C   -0.209855
    19  H    0.171984
    20  C   -0.157630
    21  H    0.178050
    22  C   -0.329610
    23  H    0.164342
    24  H    0.165401
    25  C   -0.298191
    26  H    0.155195
    27  H    0.163941
    28  C   -0.028409
    29  C   -0.152599
    30  H    0.186672
    31  C   -0.325779
    32  H    0.189212
    33  H    0.151094
    34  C   -0.335304
    35  H    0.158604
    36  H    0.169685
    37  C   -0.143151
    38  H    0.159539
    39  C   -0.490784
    40  H    0.159712
    41  H    0.166131
    42  H    0.162776
    43  C   -0.146953
    44  H    0.156111
    45  C   -0.486872
    46  H    0.158051
    47  H    0.156885
    48  H    0.160953
    49  C   -0.482835
    50  H    0.168171
    51  H    0.162974
    52  H    0.169474
    53  O   -0.398426
    54  O   -0.464469
    55  H    0.459500
    56  O   -0.758794
    57  H    0.428760
    58  C   -0.314264
    59  H    0.156488
    60  H    0.160529
    61  C   -0.319841
    62  H    0.161407
    63  H    0.159383
    64  C   -0.297663
    65  H    0.150916
    66  H    0.151863
    67  C   -0.152225
    68  H    0.156180
    69  C   -0.471665
    70  H    0.152231
    71  H    0.157503
    72  H    0.157900
    73  C   -0.476681
    74  H    0.152017
    75  H    0.157754
    76  H    0.161098
 Sum of Mulliken charges =   0.00000

 Dipole moment (field-independent basis, Debye):
    X=              0.4224    Y=              1.2813    Z=             -2.2407  Tot=              2.6155
 Quadrupole moment (field-independent basis, Debye-Ang):
   XX=           -200.3748   YY=           -189.1843   ZZ=           -187.6350
   XY=              3.1114   XZ=             -9.3077   YZ=             -2.6551

 ESP charges:
               1
     1  C    0.508050
     2  H    0.006058
     3  C   -0.151313
     4  H    0.058099
     5  H    0.034668
     6  C   -0.053567
     7  C    0.364537
     8  C   -0.119276
     9  H    0.003299
    10  H    0.046687
    11  C   -0.156910
    12  H    0.019396
    13  H    0.045332
    14  C   -0.427624
    15  H    0.157399
    16  C    0.435691
    17  H    0.018342
    18  C   -0.023062
    19  H   -0.056742
    20  C    0.052469
    21  H   -0.053499
    22  C    0.069160
    23  H   -0.024047
    24  H   -0.025152
    25  C   -0.203362
    26  H    0.008036
    27  H    0.027848
    28  C    0.462296
    29  C    0.273835
    30  H   -0.076331
    31  C   -0.354061
    32  H    0.102254
    33  H    0.033611
    34  C    0.124758
    35  H   -0.017344
    36  H   -0.018666
    37  C   -0.056245
    38  H   -0.038045
    39  C   -0.489147
    40  H    0.101204
    41  H    0.096712
    42  H    0.091627
    43  C    0.197515
    44  H   -0.045753
    45  C   -0.293749
    46  H    0.050088
    47  H    0.065243
    48  H    0.059094
    49  C   -0.252561
    50  H    0.034477
    51  H    0.061891
    52  H    0.043077
    53  O   -0.321959
    54  O   -0.447394
    55  H    0.430136
    56  O   -0.752000
    57  H    0.412824
    58  C   -0.037748
    59  H    0.003957
    60  H   -0.030466
    61  C    0.084902
    62  H   -0.006251
    63  H   -0.022531
    64  C   -0.154049
    65  H    0.003541
    66  H    0.017939
    67  C    0.513850
    68  H   -0.106968
    69  C   -0.374023
    70  H    0.072291
    71  H    0.075277
    72  H    0.064146
    73  C   -0.297606
    74  H    0.052862
    75  H    0.048204
    76  H    0.054767
 Sum of ESP charges =   0.00000

 Normal termination of Gaussian 09 at Fri Apr 28 13:05:26 2017.
