 Gaussian 09, Revision D.01,
 Gaussian 09:  EM64L-G09RevD.01 24-Apr-2013

 ----------------------------------------------------------------------
 #P HF/6-31G* SCF(Conver=6) NoSymm Test Pop=chelpg IOp(6/33=2) GFInput
 GFPrint
 ----------------------------------------------------------------------

 ----------------------------------------------
 MEP - Input generated by R.E.D.-III.x MOLECULE
 ----------------------------------------------
 Symbolic Z-matrix:
 Charge =  0 Multiplicity = 1

                          Input orientation:
 ---------------------------------------------------------------------
 Center     Atomic      Atomic             Coordinates (Angstroms)
 Number     Number       Type             X           Y           Z
 ---------------------------------------------------------------------
      1          6           0       -0.963718    2.002609    1.690043
      2          1           0       -0.981698    1.022723    2.182714
      3          6           0        0.388579    2.676195    1.972363
      4          1           0        0.540398    2.759436    3.053020
      5          1           0        0.338164    3.704501    1.581081
      6          6           0        1.548959    1.934628    1.334466
      7          6           0        1.428830    1.625145   -0.163136
      8          6           0        0.016220    1.014822   -0.420282
      9          1           0        0.000000    0.000000    0.000000
     10          1           0       -0.141006    0.906820   -1.498866
     11          6           0       -1.151739    1.808442    0.185501
     12          1           0       -1.238310    2.793984   -0.295503
     13          1           0       -2.096620    1.285222    0.000000
     14          6           0        2.610290    1.587671    2.078994
     15          1           0        2.619344    1.841312    3.137434
     16          6           0        3.815803    0.856890    1.562187
     17          1           0        4.730374    1.287180    1.989632
     18          6           0        3.903995    0.871643    0.025337
     19          1           0        4.210473    1.895514   -0.230349
     20          6           0        2.514164    0.579315   -0.601888
     21          1           0        2.194741   -0.384818   -0.179717
     22          6           0        2.595668    0.391998   -2.136728
     23          1           0        2.755161    1.359292   -2.623765
     24          1           0        1.633393    0.022722   -2.509669
     25          6           0        3.705572   -0.572712   -2.601591
     26          1           0        3.478304   -1.590654   -2.254853
     27          1           0        3.702779   -0.606595   -3.697137
     28          6           0        5.084686   -0.156198   -2.054883
     29          6           0        4.955564   -0.114556   -0.504810
     30          1           0        4.606188   -1.114796   -0.216020
     31          6           0        6.403845    0.000000    0.000000
     32          1           0        6.511880   -0.385597    1.017630
     33          1           0        6.731553    1.047372    0.015729
     34          6           0        7.220644   -0.822526   -1.037989
     35          1           0        8.054243   -0.231863   -1.431230
     36          1           0        7.664494   -1.717763   -0.589254
     37          6           0        6.225363   -1.224376   -2.172042
     38          1           0        5.751409   -2.162717   -1.846675
     39          6           0        5.505096    1.209765   -2.644724
     40          1           0        4.861960    2.023869   -2.300183
     41          1           0        6.531129    1.476575   -2.378452
     42          1           0        5.442000    1.194775   -3.736826
     43          6           0        6.927497   -1.603024   -3.508995
     44          1           0        7.656828   -2.371072   -3.202522
     45          6           0        7.743967   -0.496306   -4.206545
     46          1           0        7.103672    0.204825   -4.750551
     47          1           0        8.435763   -0.934533   -4.932808
     48          1           0        8.348269    0.081793   -3.501535
     49          6           0        1.570522    2.958827   -0.947019
     50          1           0        1.298837    2.832473   -1.999179
     51          1           0        0.922137    3.738117   -0.539552
     52          1           0        2.596098    3.338101   -0.901563
     53          8           0        3.791653   -0.540163    1.965980
     54          8           0        3.963626   -0.584561    3.410332
     55          1           0        3.071808   -0.845433    3.694165
     56          8           0       -2.047009    2.715687    2.292188
     57          1           0       -2.108386    3.590204    1.882777
     58          6           0        5.967356   -2.296500   -4.501970
     59          1           0        5.315929   -2.983198   -3.943674
     60          1           0        5.303361   -1.547737   -4.955215
     61          6           0        6.658279   -3.090182   -5.623123
     62          1           0        7.258809   -2.412607   -6.241409
     63          1           0        7.361319   -3.802445   -5.169938
     64          6           0        5.652457   -3.841194   -6.510521
     65          1           0        4.938894   -3.114105   -6.924920
     66          1           0        5.060772   -4.516901   -5.876009
     67          6           0        6.239527   -4.664409   -7.680812
     68          1           0        5.378173   -5.126710   -8.185484
     69          6           0        6.954759   -3.788188   -8.722615
     70          1           0        7.866587   -3.336869   -8.314757
     71          1           0        7.247560   -4.381917   -9.596119
     72          1           0        6.307200   -2.975788   -9.073093
     73          6           0        7.149392   -5.808145   -7.202719
     74          1           0        8.068126   -5.428078   -6.741303
     75          1           0        7.446034   -6.447251   -8.042235
     76          1           0        6.641501   -6.440466   -6.464934
 ---------------------------------------------------------------------

 SCF Done:  E(RHF) =  -1273.67823120     A.U. after    9 cycles

 Alpha  occ. eigenvalues --  -20.62334 -20.62006 -20.56059 -11.28454 -11.28228
 Alpha  occ. eigenvalues --  -11.24952 -11.24518 -11.23078 -11.22973 -11.22948
 Alpha  occ. eigenvalues --  -11.22911 -11.22667 -11.22611 -11.22497 -11.22394
 Alpha  occ. eigenvalues --  -11.22392 -11.22241 -11.21895 -11.21884 -11.21492
 Alpha  occ. eigenvalues --  -11.21491 -11.21383 -11.21322 -11.21283 -11.21063
 Alpha  occ. eigenvalues --  -11.21011 -11.20978 -11.20886 -11.20884 -11.20772
 Alpha  occ. eigenvalues --   -1.45639  -1.35436  -1.22076  -1.15575  -1.13885
 Alpha  occ. eigenvalues --   -1.09514  -1.07952  -1.05800  -1.05748  -1.03068
 Alpha  occ. eigenvalues --   -1.01607  -0.99405  -0.97935  -0.96317  -0.92593
 Alpha  occ. eigenvalues --   -0.92393  -0.92355  -0.91739  -0.90435  -0.86220
 Alpha  occ. eigenvalues --   -0.84273  -0.83140  -0.82617  -0.78714  -0.78422
 Alpha  occ. eigenvalues --   -0.76687  -0.74620  -0.73464  -0.71842  -0.70730
 Alpha  occ. eigenvalues --   -0.69003  -0.67084  -0.65183  -0.64621  -0.64404
 Alpha  occ. eigenvalues --   -0.63772  -0.63608  -0.62800  -0.62289  -0.61333
 Alpha  occ. eigenvalues --   -0.61222  -0.60186  -0.59468  -0.59026  -0.58683
 Alpha  occ. eigenvalues --   -0.58071  -0.57653  -0.57361  -0.56251  -0.55762
 Alpha  occ. eigenvalues --   -0.55583  -0.55115  -0.54227  -0.53892  -0.53579
 Alpha  occ. eigenvalues --   -0.53334  -0.53140  -0.52131  -0.51889  -0.51583
 Alpha  occ. eigenvalues --   -0.51371  -0.50608  -0.49974  -0.49677  -0.49048
 Alpha  occ. eigenvalues --   -0.48633  -0.48099  -0.47841  -0.47105  -0.47026
 Alpha  occ. eigenvalues --   -0.46478  -0.46199  -0.45851  -0.45245  -0.45004
 Alpha  occ. eigenvalues --   -0.44754  -0.44277  -0.44136  -0.43057  -0.42936
 Alpha  occ. eigenvalues --   -0.42729  -0.42192  -0.41184  -0.40162  -0.38861
 Alpha  occ. eigenvalues --   -0.34672
 Alpha virt. eigenvalues --    0.16042   0.20342   0.21254   0.21847   0.22166
 Alpha virt. eigenvalues --    0.22523   0.23182   0.24053   0.24334   0.24744
 Alpha virt. eigenvalues --    0.25363   0.25996   0.26522   0.27053   0.27136

 Mulliken charges:
               1
     1  C    0.194105
     2  H    0.172011
     3  C   -0.368734
     4  H    0.192247
     5  H    0.155656
     6  C    0.083544
     7  C   -0.044873
     8  C   -0.325384
     9  H    0.168023
    10  H    0.173717
    11  C   -0.341416
    12  H    0.145079
    13  H    0.184011
    14  C   -0.277492
    15  H    0.193440
    16  C    0.192952
    17  H    0.186733
    18  C   -0.210055
    19  H    0.171865
    20  C   -0.157338
    21  H    0.177883
    22  C   -0.330088
    23  H    0.165180
    24  H    0.165262
    25  C   -0.298791
    26  H    0.155034
    27  H    0.162685
    28  C   -0.023648
    29  C   -0.156025
    30  H    0.187950
    31  C   -0.325630
    32  H    0.188408
    33  H    0.151382
    34  C   -0.328452
    35  H    0.159074
    36  H    0.167176
    37  C   -0.155394
    38  H    0.156571
    39  C   -0.486523
    40  H    0.158219
    41  H    0.167130
    42  H    0.161019
    43  C   -0.135954
    44  H    0.152603
    45  C   -0.485568
    46  H    0.155074
    47  H    0.162300
    48  H    0.161021
    49  C   -0.482451
    50  H    0.168223
    51  H    0.162816
    52  H    0.169446
    53  O   -0.398522
    54  O   -0.464381
    55  H    0.459424
    56  O   -0.758825
    57  H    0.428750
    58  C   -0.303929
    59  H    0.153794
    60  H    0.150280
    61  C   -0.315346
    62  H    0.160124
    63  H    0.154817
    64  C   -0.300519
    65  H    0.150220
    66  H    0.151540
    67  C   -0.146268
    68  H    0.155134
    69  C   -0.476189
    70  H    0.155867
    71  H    0.158402
    72  H    0.156281
    73  C   -0.476249
    74  H    0.156452
    75  H    0.158137
    76  H    0.156984
 Sum of Mulliken charges =   0.00000

 Dipole moment (field-independent basis, Debye):
    X=             -0.7852    Y=              1.5152    Z=             -1.8479  Tot=              2.5154
 Quadrupole moment (field-independent basis, Debye-Ang):
   XX=           -206.1773   YY=           -184.2063   ZZ=           -195.0778
   XY=              4.7771   XZ=             -1.4444   YZ=             -1.5261

 ESP charges:
               1
     1  C    0.530617
     2  H    0.002620
     3  C   -0.202290
     4  H    0.070878
     5  H    0.046979
     6  C   -0.035385
     7  C    0.377847
     8  C   -0.057816
     9  H   -0.015086
    10  H    0.028612
    11  C   -0.181641
    12  H    0.020686
    13  H    0.046683
    14  C   -0.452145
    15  H    0.158535
    16  C    0.536198
    17  H   -0.006983
    18  C   -0.178882
    19  H   -0.015200
    20  C   -0.008292
    21  H   -0.034007
    22  C    0.147335
    23  H   -0.030982
    24  H   -0.040028
    25  C   -0.239306
    26  H    0.019635
    27  H    0.016963
    28  C    0.481013
    29  C    0.278607
    30  H   -0.081420
    31  C   -0.185765
    32  H    0.068685
    33  H    0.000978
    34  C   -0.041288
    35  H    0.018284
    36  H    0.000427
    37  C   -0.022070
    38  H   -0.022504
    39  C   -0.523044
    40  H    0.107362
    41  H    0.110008
    42  H    0.101006
    43  C    0.194546
    44  H   -0.032301
    45  C   -0.258810
    46  H    0.051874
    47  H    0.045892
    48  H    0.053125
    49  C   -0.202810
    50  H    0.017567
    51  H    0.044685
    52  H    0.033677
    53  O   -0.321221
    54  O   -0.452797
    55  H    0.430052
    56  O   -0.753901
    57  H    0.413909
    58  C   -0.207464
    59  H    0.020701
    60  H    0.046762
    61  C    0.227908
    62  H   -0.030422
    63  H   -0.036442
    64  C   -0.205770
    65  H    0.015044
    66  H    0.023226
    67  C    0.422876
    68  H   -0.081036
    69  C   -0.280717
    70  H    0.049049
    71  H    0.053023
    72  H    0.050575
    73  C   -0.269759
    74  H    0.044706
    75  H    0.050330
    76  H    0.048099
 Sum of ESP charges =   0.00000

 Normal termination of Gaussian 09 at Fri Apr 28 12:00:33 2017.
