 Gaussian 09, Revision D.01,
 Gaussian 09:  EM64L-G09RevD.01 24-Apr-2013

 ----------------------------------------------------------------------
 #P HF/6-31G* SCF(Conver=6) NoSymm Test Pop=chelpg IOp(6/33=2) GFInput
 GFPrint
 ----------------------------------------------------------------------

 ----------------------------------------------
 MEP - Input generated by R.E.D.-III.x MOLECULE
 ----------------------------------------------
 Symbolic Z-matrix:
 Charge =  0 Multiplicity = 1

                          Input orientation:
 ---------------------------------------------------------------------
 Center     Atomic      Atomic             Coordinates (Angstroms)
 Number     Number       Type             X           Y           Z
 ---------------------------------------------------------------------
      1          6           0        7.517498    2.151162   -0.058041
      2          1           0        7.417785    2.067420    1.031134
      3          6           0        6.762962    0.985714   -0.717319
      4          1           0        7.154565    0.034649   -0.343260
      5          1           0        6.981416    1.013861   -1.796466
      6          6           0        5.264575    1.062999   -0.489059
      7          6           0        4.581099    2.388993   -0.846154
      8          6           0        5.418415    3.549189   -0.224207
      9          1           0        5.273070    3.530945    0.864510
     10          1           0        5.023626    4.509063   -0.574236
     11          6           0        6.926350    3.485659   -0.512318
     12          1           0        7.118776    3.616128   -1.587520
     13          1           0        7.440867    4.306482    0.000000
     14          6           0        4.607327    0.000000    0.000000
     15          1           0        5.164814   -0.905715    0.231514
     16          6           0        3.130095   -0.044970    0.265165
     17          1           0        2.717796   -1.009900   -0.056038
     18          6           0        2.369047    1.100846   -0.426085
     19          1           0        2.353995    0.827963   -1.490432
     20          6           0        3.130111    2.442590   -0.249884
     21          1           0        3.252499    2.574121    0.835265
     22          6           0        2.306054    3.651013   -0.758021
     23          1           0        2.287422    3.658016   -1.852403
     24          1           0        2.803015    4.581291   -0.459693
     25          6           0        0.850610    3.686470   -0.248684
     26          1           0        0.846572    3.840338    0.839358
     27          1           0        0.347763    4.554115   -0.691807
     28          6           0        0.103894    2.377495   -0.570799
     29          6           0        0.924431    1.226512    0.080614
     30          1           0        0.997847    1.488764    1.144441
     31          6           0        0.000000    0.000000    0.000000
     32          1           0        0.237895   -0.739897    0.769338
     33          1           0        0.098899   -0.501508   -0.971247
     34          6           0       -1.424588    0.601022    0.172428
     35          1           0       -2.083853    0.274691   -0.638197
     36          1           0       -1.896297    0.268818    1.103551
     37          6           0       -1.256216    2.154424    0.177856
     38          1           0       -1.038085    2.426881    1.219060
     39          6           0       -0.034223    2.202547   -2.100748
     40          1           0        0.931782    2.041912   -2.586695
     41          1           0       -0.670410    1.353513   -2.363433
     42          1           0       -0.473626    3.095776   -2.554400
     43          6           0       -2.573969    2.909513   -0.162156
     44          1           0       -3.307359    2.471451    0.534914
     45          6           0       -3.154633    2.691682   -1.574445
     46          1           0       -2.623734    3.275738   -2.331927
     47          1           0       -4.201975    3.013946   -1.594277
     48          1           0       -3.132389    1.643197   -1.885066
     49          6           0        4.568267    2.527094   -2.393492
     50          1           0        4.276319    3.535796   -2.700339
     51          1           0        5.553006    2.332718   -2.825105
     52          1           0        3.872148    1.815982   -2.848987
     53          8           0        2.851840    0.067299    1.688308
     54          8           0        3.345977   -1.141320    2.330767
     55          1           0        4.119411   -0.794655    2.805705
     56          8           0        8.926399    2.067243   -0.286913
     57          1           0        9.092582    2.159632   -1.235604
     58          6           0       -2.552723    4.427295    0.143990
     59          1           0       -1.797215    4.921790   -0.481471
     60          1           0       -3.518238    4.833967   -0.184265
     61          6           0       -2.331603    4.813993    1.614477
     62          1           0       -3.089553    4.317528    2.235789
     63          1           0       -1.365286    4.428104    1.959197
     64          6           0       -2.344265    6.331389    1.881065
     65          1           0       -1.546722    6.796411    1.283501
     66          1           0       -2.071774    6.502855    2.933064
     67          6           0       -3.663086    7.083305    1.600528
     68          1           0       -3.928439    6.935068    0.544109
     69          6           0       -4.828629    6.563620    2.456992
     70          1           0       -4.602301    6.667021    3.526292
     71          1           0       -5.744956    7.130142    2.255667
     72          1           0       -5.045502    5.508091    2.263539
     73          6           0       -3.467186    8.592653    1.816398
     74          1           0       -3.204939    8.807671    2.860368
     75          1           0       -4.381154    9.150387    1.582249
     76          1           0       -2.662878    8.985807    1.183912
 ---------------------------------------------------------------------

 SCF Done:  E(RHF) =  -1273.67684262     A.U. after    9 cycles

 Alpha  occ. eigenvalues --  -20.62358 -20.62032 -20.56077 -11.28481 -11.28248
 Alpha  occ. eigenvalues --  -11.24983 -11.24545 -11.23100 -11.23013 -11.22974
 Alpha  occ. eigenvalues --  -11.22945 -11.22686 -11.22682 -11.22462 -11.22419
 Alpha  occ. eigenvalues --  -11.22369 -11.22270 -11.21950 -11.21852 -11.21613
 Alpha  occ. eigenvalues --  -11.21518 -11.21424 -11.21324 -11.21320 -11.21076
 Alpha  occ. eigenvalues --  -11.21013 -11.20983 -11.20899 -11.20897 -11.20806
 Alpha  occ. eigenvalues --   -1.45663  -1.35456  -1.22102  -1.15606  -1.13905
 Alpha  occ. eigenvalues --   -1.09543  -1.07969  -1.05807  -1.05712  -1.03117
 Alpha  occ. eigenvalues --   -1.01552  -0.99646  -0.97965  -0.96418  -0.92614
 Alpha  occ. eigenvalues --   -0.92430  -0.92361  -0.91649  -0.90462  -0.86249
 Alpha  occ. eigenvalues --   -0.83719  -0.82798  -0.82493  -0.79626  -0.78447
 Alpha  occ. eigenvalues --   -0.77056  -0.74874  -0.73548  -0.71860  -0.70749
 Alpha  occ. eigenvalues --   -0.69032  -0.67107  -0.65255  -0.64746  -0.64373
 Alpha  occ. eigenvalues --   -0.63787  -0.63266  -0.62745  -0.62439  -0.61337
 Alpha  occ. eigenvalues --   -0.61086  -0.59832  -0.59435  -0.59061  -0.58401
 Alpha  occ. eigenvalues --   -0.57872  -0.57675  -0.57359  -0.56265  -0.55922
 Alpha  occ. eigenvalues --   -0.55436  -0.54569  -0.54223  -0.54032  -0.53793
 Alpha  occ. eigenvalues --   -0.53504  -0.53221  -0.52948  -0.52828  -0.51894
 Alpha  occ. eigenvalues --   -0.50811  -0.50508  -0.49942  -0.49688  -0.49058
 Alpha  occ. eigenvalues --   -0.48848  -0.48105  -0.47998  -0.47258  -0.47220
 Alpha  occ. eigenvalues --   -0.46676  -0.46198  -0.45429  -0.45126  -0.44755
 Alpha  occ. eigenvalues --   -0.44602  -0.44339  -0.44195  -0.43195  -0.42897
 Alpha  occ. eigenvalues --   -0.42466  -0.41958  -0.41590  -0.40184  -0.38919
 Alpha  occ. eigenvalues --   -0.34699
 Alpha virt. eigenvalues --    0.16015   0.20201   0.21013   0.21766   0.22328
 Alpha virt. eigenvalues --    0.22825   0.23019   0.23925   0.24307   0.24635
 Alpha virt. eigenvalues --    0.25009   0.25953   0.26546   0.26893   0.27154

 Mulliken charges:
               1
     1  C    0.194098
     2  H    0.172046
     3  C   -0.368807
     4  H    0.192317
     5  H    0.155668
     6  C    0.083535
     7  C   -0.044742
     8  C   -0.325476
     9  H    0.168031
    10  H    0.173684
    11  C   -0.341367
    12  H    0.145154
    13  H    0.184098
    14  C   -0.277490
    15  H    0.193503
    16  C    0.192952
    17  H    0.186892
    18  C   -0.210220
    19  H    0.172026
    20  C   -0.157591
    21  H    0.177938
    22  C   -0.329443
    23  H    0.165708
    24  H    0.165399
    25  C   -0.301861
    26  H    0.156497
    27  H    0.161642
    28  C   -0.023148
    29  C   -0.156460
    30  H    0.187742
    31  C   -0.325382
    32  H    0.188355
    33  H    0.151447
    34  C   -0.327772
    35  H    0.158856
    36  H    0.167022
    37  C   -0.157737
    38  H    0.163454
    39  C   -0.487158
    40  H    0.158285
    41  H    0.167399
    42  H    0.161346
    43  C   -0.140396
    44  H    0.152227
    45  C   -0.482697
    46  H    0.156030
    47  H    0.157839
    48  H    0.160564
    49  C   -0.482570
    50  H    0.168160
    51  H    0.162972
    52  H    0.169521
    53  O   -0.398573
    54  O   -0.464268
    55  H    0.459457
    56  O   -0.758759
    57  H    0.428777
    58  C   -0.306199
    59  H    0.151539
    60  H    0.157283
    61  C   -0.317606
    62  H    0.154547
    63  H    0.162494
    64  C   -0.297347
    65  H    0.150479
    66  H    0.151177
    67  C   -0.152667
    68  H    0.156149
    69  C   -0.476365
    70  H    0.152372
    71  H    0.158106
    72  H    0.161465
    73  C   -0.471567
    74  H    0.152369
    75  H    0.158056
    76  H    0.156994
 Sum of Mulliken charges =   0.00000

 Dipole moment (field-independent basis, Debye):
    X=              0.3637    Y=              1.3024    Z=             -2.1261  Tot=              2.5197
 Quadrupole moment (field-independent basis, Debye-Ang):
   XX=           -199.1200   YY=           -189.9119   ZZ=           -187.9251
   XY=              3.0119   XZ=            -10.3873   YZ=             -2.9646

 ESP charges:
               1
     1  C    0.500471
     2  H    0.009313
     3  C   -0.175079
     4  H    0.066699
     5  H    0.041083
     6  C   -0.051542
     7  C    0.402145
     8  C   -0.128656
     9  H    0.002550
    10  H    0.045997
    11  C   -0.159157
    12  H    0.018613
    13  H    0.048237
    14  C   -0.437141
    15  H    0.153280
    16  C    0.539065
    17  H   -0.004164
    18  C   -0.273227
    19  H    0.007074
    20  C    0.081209
    21  H   -0.051596
    22  C    0.068457
    23  H   -0.012458
    24  H   -0.024496
    25  C   -0.319732
    26  H    0.063085
    27  H    0.067421
    28  C    0.526055
    29  C    0.314987
    30  H   -0.083237
    31  C   -0.158904
    32  H    0.062096
    33  H   -0.006131
    34  C   -0.053065
    35  H    0.020403
    36  H    0.006000
    37  C   -0.107273
    38  H   -0.010289
    39  C   -0.535294
    40  H    0.109274
    41  H    0.115659
    42  H    0.105150
    43  C    0.229686
    44  H   -0.020934
    45  C   -0.321521
    46  H    0.062604
    47  H    0.062335
    48  H    0.073590
    49  C   -0.211854
    50  H    0.020391
    51  H    0.050401
    52  H    0.029915
    53  O   -0.318546
    54  O   -0.454198
    55  H    0.430171
    56  O   -0.748944
    57  H    0.413777
    58  C   -0.151330
    59  H    0.011017
    60  H    0.049070
    61  C    0.052741
    62  H   -0.010191
    63  H   -0.013318
    64  C   -0.131729
    65  H    0.008272
    66  H    0.010104
    67  C    0.491042
    68  H   -0.102303
    69  C   -0.304638
    70  H    0.056284
    71  H    0.052880
    72  H    0.056770
    73  C   -0.356705
    74  H    0.066872
    75  H    0.072496
    76  H    0.062911
 Sum of ESP charges =   0.00000

 Normal termination of Gaussian 09 at Fri Apr 28 12:11:39 2017.
