 Gaussian 09, Revision D.01,
 Gaussian 09:  EM64L-G09RevD.01 24-Apr-2013

 ----------------------------------------------------------------------
 #P HF/6-31G* SCF(Conver=6) NoSymm Test Pop=chelpg IOp(6/33=2) GFInput
 GFPrint
 ----------------------------------------------------------------------

 ----------------------------------------------
 MEP - Input generated by R.E.D.-III.x MOLECULE
 ----------------------------------------------
 Symbolic Z-matrix:
 Charge =  0 Multiplicity = 1

                          Input orientation:
 ---------------------------------------------------------------------
 Center     Atomic      Atomic             Coordinates (Angstroms)
 Number     Number       Type             X           Y           Z
 ---------------------------------------------------------------------
      1          6           0        7.542104    2.136697   -0.140629
      2          1           0        7.497283    2.012678    0.948030
      3          6           0        6.751699    0.996338   -0.802946
      4          1           0        7.157119    0.032185   -0.480884
      5          1           0        6.916303    1.061841   -1.889924
      6          6           0        5.268231    1.071901   -0.497065
      7          6           0        4.570349    2.407933   -0.775272
      8          6           0        5.440926    3.544621   -0.155244
      9          1           0        5.346058    3.490289    0.937652
     10          1           0        5.033974    4.516160   -0.455331
     11          6           0        6.933422    3.487561   -0.516699
     12          1           0        7.075095    3.656977   -1.594495
     13          1           0        7.474753    4.288166    0.000000
     14          6           0        4.632498    0.000000    0.000000
     15          1           0        5.195575   -0.907682    0.209708
     16          6           0        3.176824   -0.030401    0.361095
     17          1           0        2.740794   -1.006763    0.122830
     18          6           0        2.381728    1.103909   -0.313738
     19          1           0        2.360576    0.849838   -1.383815
     20          6           0        3.150897    2.437622   -0.105667
     21          1           0        3.327762    2.499320    0.978200
     22          6           0        2.323358    3.686659   -0.488961
     23          1           0        2.279818    3.794680   -1.577363
     24          1           0        2.831811    4.584406   -0.118787
     25          6           0        0.881239    3.681597    0.054040
     26          1           0        0.898390    3.734766    1.151957
     27          1           0        0.377165    4.588329   -0.295352
     28          6           0        0.125460    2.407032   -0.366940
     29          6           0        0.936503    1.203224    0.196122
     30          1           0        1.002930    1.378653    1.279277
     31          6           0        0.000000    0.000000    0.000000
     32          1           0        0.228633   -0.814480    0.689674
     33          1           0        0.091030   -0.400153   -1.018243
     34          6           0       -1.415649    0.594652    0.237367
     35          1           0       -2.091959    0.331970   -0.584859
     36          1           0       -1.869301    0.192747    1.148870
     37          6           0       -1.252843    2.147601    0.333034
     38          1           0       -1.101439    2.409210    1.390458
     39          6           0       -0.037110    2.351812   -1.903818
     40          1           0        0.921806    2.282820   -2.423759
     41          1           0       -0.637440    1.494340   -2.221817
     42          1           0       -0.538219    3.253955   -2.271485
     43          6           0       -2.512709    2.905648   -0.155129
     44          1           0       -2.669592    2.634768   -1.209521
     45          6           0       -2.381454    4.439118   -0.093383
     46          1           0       -2.053531    4.782644    0.894079
     47          1           0       -3.346392    4.914568   -0.306445
     48          1           0       -1.665265    4.817738   -0.827000
     49          6           0        4.482687    2.599773   -2.314362
     50          1           0        4.168942    3.615958   -2.570523
     51          1           0        5.447557    2.430821   -2.798547
     52          1           0        3.771215    1.899161   -2.762022
     53          8           0        3.196272    0.074949    1.816551
     54          8           0        2.050698   -0.647785    2.376280
     55          1           0        2.520756   -1.281309    2.941962
     56          8           0        8.937208    2.058924   -0.444863
     57          1           0        9.055303    2.196903   -1.395219
     58          6           0       -3.797128    2.444652    0.585202
     59          1           0       -4.651224    2.952481    0.114451
     60          1           0       -3.954463    1.373336    0.408189
     61          6           0       -3.850377    2.704842    2.099667
     62          1           0       -3.017285    2.189080    2.591658
     63          1           0       -3.712889    3.775964    2.301177
     64          6           0       -5.179235    2.250504    2.722826
     65          1           0       -5.300330    1.166479    2.573205
     66          1           0       -6.003620    2.725596    2.171656
     67          6           0       -5.351446    2.567380    4.222381
     68          1           0       -5.190268    3.648752    4.353529
     69          6           0       -6.784128    2.249680    4.679473
     70          1           0       -7.001280    1.179529    4.567811
     71          1           0       -6.932759    2.509628    5.733808
     72          1           0       -7.524278    2.802481    4.089567
     73          6           0       -4.330729    1.828968    5.103557
     74          1           0       -4.432158    0.741942    4.987299
     75          1           0       -4.485437    2.064503    6.162751
     76          1           0       -3.299177    2.096570    4.854238
 ---------------------------------------------------------------------

 SCF Done:  E(RHF) =  -1273.68092150     A.U. after    9 cycles

 Alpha  occ. eigenvalues --  -20.62385 -20.62266 -20.55791 -11.28581 -11.27914
 Alpha  occ. eigenvalues --  -11.24653 -11.24294 -11.22827 -11.22619 -11.22483
 Alpha  occ. eigenvalues --  -11.22435 -11.22419 -11.22393 -11.22349 -11.22255
 Alpha  occ. eigenvalues --  -11.22052 -11.21993 -11.21530 -11.21514 -11.21240
 Alpha  occ. eigenvalues --  -11.21154 -11.21125 -11.21098 -11.20945 -11.20874
 Alpha  occ. eigenvalues --  -11.20851 -11.20785 -11.20764 -11.20672 -11.20408
 Alpha  occ. eigenvalues --   -1.45246  -1.35164  -1.22370  -1.15398  -1.13627
 Alpha  occ. eigenvalues --   -1.09378  -1.07763  -1.05530  -1.05485  -1.02840
 Alpha  occ. eigenvalues --   -1.01364  -0.99352  -0.97577  -0.96065  -0.92650
 Alpha  occ. eigenvalues --   -0.92157  -0.92012  -0.90660  -0.90509  -0.85998
 Alpha  occ. eigenvalues --   -0.83786  -0.82516  -0.82444  -0.78744  -0.77890
 Alpha  occ. eigenvalues --   -0.76605  -0.75714  -0.72663  -0.71856  -0.69939
 Alpha  occ. eigenvalues --   -0.68593  -0.66786  -0.66489  -0.64955  -0.63816
 Alpha  occ. eigenvalues --   -0.63576  -0.63268  -0.62137  -0.61873  -0.61504
 Alpha  occ. eigenvalues --   -0.60513  -0.60107  -0.59391  -0.59050  -0.58069
 Alpha  occ. eigenvalues --   -0.57426  -0.56751  -0.56348  -0.55983  -0.55835
 Alpha  occ. eigenvalues --   -0.55514  -0.54543  -0.54273  -0.53966  -0.53495
 Alpha  occ. eigenvalues --   -0.53334  -0.52847  -0.52518  -0.52397  -0.51625
 Alpha  occ. eigenvalues --   -0.50811  -0.50521  -0.49985  -0.49124  -0.48645
 Alpha  occ. eigenvalues --   -0.48301  -0.48049  -0.47408  -0.47112  -0.46793
 Alpha  occ. eigenvalues --   -0.46247  -0.45817  -0.45206  -0.45020  -0.44772
 Alpha  occ. eigenvalues --   -0.44520  -0.44379  -0.43444  -0.43206  -0.42688
 Alpha  occ. eigenvalues --   -0.42454  -0.42116  -0.41415  -0.39878  -0.38326
 Alpha  occ. eigenvalues --   -0.34432
 Alpha virt. eigenvalues --    0.15883   0.20848   0.21374   0.22216   0.22518
 Alpha virt. eigenvalues --    0.23161   0.23532   0.24441   0.24781   0.24976
 Alpha virt. eigenvalues --    0.25387   0.26144   0.26720   0.26956   0.27523

 Mulliken charges:
               1
     1  C    0.192576
     2  H    0.177322
     3  C   -0.368067
     4  H    0.192621
     5  H    0.154659
     6  C    0.085541
     7  C   -0.045316
     8  C   -0.326182
     9  H    0.171915
    10  H    0.173161
    11  C   -0.341692
    12  H    0.143637
    13  H    0.183621
    14  C   -0.249577
    15  H    0.187435
    16  C    0.158639
    17  H    0.189214
    18  C   -0.180904
    19  H    0.164358
    20  C   -0.169319
    21  H    0.188433
    22  C   -0.328784
    23  H    0.162641
    24  H    0.165156
    25  C   -0.298615
    26  H    0.155967
    27  H    0.163142
    28  C   -0.028073
    29  C   -0.164197
    30  H    0.193232
    31  C   -0.326217
    32  H    0.193075
    33  H    0.146823
    34  C   -0.334571
    35  H    0.156798
    36  H    0.167490
    37  C   -0.142275
    38  H    0.159999
    39  C   -0.491954
    40  H    0.160418
    41  H    0.165797
    42  H    0.161345
    43  C   -0.146966
    44  H    0.155689
    45  C   -0.485915
    46  H    0.157815
    47  H    0.156402
    48  H    0.160730
    49  C   -0.481844
    50  H    0.167552
    51  H    0.161772
    52  H    0.169525
    53  O   -0.393176
    54  O   -0.471704
    55  H    0.460670
    56  O   -0.759117
    57  H    0.428021
    58  C   -0.309763
    59  H    0.151454
    60  H    0.161100
    61  C   -0.316843
    62  H    0.161995
    63  H    0.154706
    64  C   -0.294539
    65  H    0.147150
    66  H    0.151072
    67  C   -0.147048
    68  H    0.150899
    69  C   -0.472251
    70  H    0.152305
    71  H    0.157594
    72  H    0.157327
    73  C   -0.476472
    74  H    0.151354
    75  H    0.157583
    76  H    0.163644
 Sum of Mulliken charges =   0.00000

 Dipole moment (field-independent basis, Debye):
    X=             -0.3068    Y=             -0.4194    Z=             -1.7738  Tot=              1.8484
 Quadrupole moment (field-independent basis, Debye-Ang):
   XX=           -210.2787   YY=           -184.0093   ZZ=           -187.3240
   XY=             -1.7853   XZ=            -11.2823   YZ=             -7.3475

 ESP charges:
               1
     1  C    0.521339
     2  H    0.006861
     3  C   -0.199626
     4  H    0.066413
     5  H    0.043305
     6  C    0.021259
     7  C    0.312766
     8  C   -0.058062
     9  H   -0.012245
    10  H    0.032449
    11  C   -0.185420
    12  H    0.023521
    13  H    0.049129
    14  C   -0.483849
    15  H    0.173765
    16  C    0.555993
    17  H   -0.020941
    18  C   -0.153137
    19  H   -0.030476
    20  C    0.131561
    21  H   -0.044461
    22  C   -0.022127
    23  H   -0.005835
    24  H   -0.009475
    25  C   -0.133228
    26  H   -0.010461
    27  H    0.018813
    28  C    0.433537
    29  C    0.254201
    30  H   -0.019590
    31  C   -0.257586
    32  H    0.057337
    33  H    0.020565
    34  C    0.068838
    35  H   -0.011675
    36  H   -0.007719
    37  C   -0.044601
    38  H   -0.060622
    39  C   -0.452996
    40  H    0.093388
    41  H    0.088325
    42  H    0.079748
    43  C    0.234598
    44  H   -0.050555
    45  C   -0.343830
    46  H    0.060657
    47  H    0.076923
    48  H    0.070631
    49  C   -0.290938
    50  H    0.048391
    51  H    0.070833
    52  H    0.052021
    53  O   -0.352543
    54  O   -0.479701
    55  H    0.451516
    56  O   -0.750683
    57  H    0.413050
    58  C   -0.046743
    59  H    0.001878
    60  H   -0.030413
    61  C    0.104399
    62  H    0.006061
    63  H   -0.025997
    64  C   -0.159807
    65  H    0.022006
    66  H    0.018501
    67  C    0.401336
    68  H   -0.076638
    69  C   -0.314103
    70  H    0.058119
    71  H    0.064942
    72  H    0.057396
    73  C   -0.244293
    74  H    0.048936
    75  H    0.046156
    76  H    0.028911
 Sum of ESP charges =   0.00000

 Normal termination of Gaussian 09 at Fri Apr 28 12:44:45 2017.
