 Gaussian 09, Revision D.01,
 Gaussian 09:  EM64L-G09RevD.01 24-Apr-2013

 ----------------------------------------------------------------------
 #P HF/6-31G* SCF(Conver=6) NoSymm Test Pop=chelpg IOp(6/33=2) GFInput
 GFPrint
 ----------------------------------------------------------------------

 ----------------------------------------------
 MEP - Input generated by R.E.D.-III.x MOLECULE
 ----------------------------------------------
 Symbolic Z-matrix:
 Charge =  0 Multiplicity = 1

                          Input orientation:
 ---------------------------------------------------------------------
 Center     Atomic      Atomic             Coordinates (Angstroms)
 Number     Number       Type             X           Y           Z
 ---------------------------------------------------------------------
      1          6           0        7.509315    2.149533   -0.050579
      2          1           0        7.403661    2.069639    1.038306
      3          6           0        6.758130    0.981859   -0.709843
      4          1           0        7.147143    0.032049   -0.329933
      5          1           0        6.982813    1.005804   -1.787803
      6          6           0        5.258542    1.060654   -0.490264
      7          6           0        4.577542    2.385223   -0.856908
      8          6           0        5.411327    3.547567   -0.234326
      9          1           0        5.259262    3.533374    0.853521
     10          1           0        5.018808    4.506264   -0.590229
     11          6           0        6.921073    3.482656   -0.512831
     12          1           0        7.120452    3.609545   -1.587217
     13          1           0        7.432619    4.305018    0.000000
     14          6           0        4.598476    0.000000    0.000000
     15          1           0        5.154373   -0.904957    0.238210
     16          6           0        3.120146   -0.042814    0.258542
     17          1           0        2.708466   -1.008930   -0.059842
     18          6           0        2.362393    1.100361   -0.440390
     19          1           0        2.347422    0.823164   -1.503939
     20          6           0        3.123058    2.442160   -0.269434
     21          1           0        3.239033    2.581791    0.815404
     22          6           0        2.299380    3.643246   -0.792347
     23          1           0        2.289836    3.640765   -1.887005
     24          1           0        2.791045    4.577917   -0.498760
     25          6           0        0.839015    3.681274   -0.296885
     26          1           0        0.822193    3.844269    0.790169
     27          1           0        0.344264    4.546468   -0.749849
     28          6           0        0.095267    2.366757   -0.609758
     29          6           0        0.916246    1.230471    0.061285
     30          1           0        0.983431    1.511707    1.121198
     31          6           0        0.000000    0.000000    0.000000
     32          1           0        0.240037   -0.726138    0.781581
     33          1           0        0.101287   -0.517629   -0.962552
     34          6           0       -1.425542    0.597707    0.161413
     35          1           0       -2.085363    0.250807   -0.642650
     36          1           0       -1.890187    0.278145    1.099373
     37          6           0       -1.281643    2.154850    0.110689
     38          1           0       -1.135746    2.515627    1.139385
     39          6           0       -0.061879    2.174695   -2.135126
     40          1           0        0.899906    2.103623   -2.649659
     41          1           0       -0.623951    1.267689   -2.377298
     42          1           0       -0.600529    3.019687   -2.577321
     43          6           0       -2.549300    2.848992   -0.446050
     44          1           0       -2.699101    2.483389   -1.472537
     45          6           0       -2.435690    4.383488   -0.520889
     46          1           0       -2.118512    4.817524    0.433943
     47          1           0       -3.404382    4.826622   -0.780922
     48          1           0       -1.718781    4.704285   -1.281061
     49          6           0        4.574729    2.516624   -2.404833
     50          1           0        4.285775    3.524201   -2.718056
     51          1           0        5.562052    2.319510   -2.829185
     52          1           0        3.881004    1.803941   -2.861579
     53          8           0        2.835986    0.076344    1.679974
     54          8           0        3.324605   -1.130641    2.329713
     55          1           0        4.095727   -0.783303    2.807888
     56          8           0        8.919467    2.064500   -0.271308
     57          1           0        9.091065    2.154241   -1.219287
     58          6           0       -3.830410    2.439737    0.329280
     59          1           0       -4.688085    2.898930   -0.183110
     60          1           0       -3.978146    1.356119    0.241419
     61          6           0       -3.889336    2.824813    1.817115
     62          1           0       -3.061838    2.346481    2.355077
     63          1           0       -3.744500    3.906612    1.924192
     64          6           0       -5.224984    2.417783    2.461224
     65          1           0       -5.367307    1.336294    2.321342
     66          1           0       -6.042715    2.903495    1.909064
     67          6           0       -5.396629    2.738574    3.964334
     68          1           0       -6.402312    2.383823    4.234751
     69          6           0       -4.397052    1.977547    4.851170
     70          1           0       -3.368374    2.318457    4.686728
     71          1           0       -4.624588    2.128076    5.912703
     72          1           0       -4.427671    0.899698    4.652866
     73          6           0       -5.357021    4.247654    4.257126
     74          1           0       -4.361920    4.669019    4.073577
     75          1           0       -5.607901    4.448135    5.305048
     76          1           0       -6.072566    4.794701    3.631878
 ---------------------------------------------------------------------

 SCF Done:  E(RHF) =  -1273.68298690     A.U. after    9 cycles

 Alpha  occ. eigenvalues --  -20.62347 -20.62019 -20.56065 -11.28463 -11.28235
 Alpha  occ. eigenvalues --  -11.24960 -11.24526 -11.23086 -11.22974 -11.22956
 Alpha  occ. eigenvalues --  -11.22918 -11.22673 -11.22636 -11.22402 -11.22334
 Alpha  occ. eigenvalues --  -11.22255 -11.22219 -11.21901 -11.21789 -11.21499
 Alpha  occ. eigenvalues --  -11.21327 -11.21299 -11.21257 -11.21156 -11.21124
 Alpha  occ. eigenvalues --  -11.21019 -11.20868 -11.20842 -11.20841 -11.20810
 Alpha  occ. eigenvalues --   -1.45652  -1.35443  -1.22092  -1.15601  -1.13939
 Alpha  occ. eigenvalues --   -1.09467  -1.07904  -1.05788  -1.05683  -1.03080
 Alpha  occ. eigenvalues --   -1.01519  -0.99388  -0.97942  -0.96357  -0.92929
 Alpha  occ. eigenvalues --   -0.92295  -0.92199  -0.90857  -0.90735  -0.86232
 Alpha  occ. eigenvalues --   -0.84412  -0.83041  -0.82683  -0.79113  -0.78172
 Alpha  occ. eigenvalues --   -0.76886  -0.74496  -0.73001  -0.71798  -0.70814
 Alpha  occ. eigenvalues --   -0.69118  -0.67107  -0.65670  -0.64449  -0.64280
 Alpha  occ. eigenvalues --   -0.63903  -0.63301  -0.62785  -0.61982  -0.61724
 Alpha  occ. eigenvalues --   -0.61036  -0.60107  -0.59333  -0.59084  -0.58443
 Alpha  occ. eigenvalues --   -0.58102  -0.57570  -0.57092  -0.56433  -0.56018
 Alpha  occ. eigenvalues --   -0.55080  -0.54756  -0.54469  -0.54086  -0.53788
 Alpha  occ. eigenvalues --   -0.53200  -0.53113  -0.52651  -0.52044  -0.51602
 Alpha  occ. eigenvalues --   -0.51437  -0.50453  -0.50154  -0.49661  -0.49043
 Alpha  occ. eigenvalues --   -0.48373  -0.48113  -0.47632  -0.47331  -0.47193
 Alpha  occ. eigenvalues --   -0.46564  -0.46144  -0.45396  -0.45121  -0.44846
 Alpha  occ. eigenvalues --   -0.44508  -0.44322  -0.43568  -0.43291  -0.42855
 Alpha  occ. eigenvalues --   -0.42594  -0.42294  -0.41621  -0.40202  -0.38940
 Alpha  occ. eigenvalues --   -0.34683
 Alpha virt. eigenvalues --    0.16034   0.20414   0.21268   0.21769   0.22268
 Alpha virt. eigenvalues --    0.22948   0.23065   0.24080   0.24249   0.24717
 Alpha virt. eigenvalues --    0.25326   0.26080   0.26569   0.26679   0.27368

 Mulliken charges:
               1
     1  C    0.194087
     2  H    0.172045
     3  C   -0.368769
     4  H    0.192255
     5  H    0.155625
     6  C    0.083483
     7  C   -0.044590
     8  C   -0.325398
     9  H    0.168077
    10  H    0.173685
    11  C   -0.341378
    12  H    0.145081
    13  H    0.184049
    14  C   -0.277150
    15  H    0.193412
    16  C    0.192121
    17  H    0.186723
    18  C   -0.209782
    19  H    0.171940
    20  C   -0.157520
    21  H    0.177955
    22  C   -0.329557
    23  H    0.164362
    24  H    0.165334
    25  C   -0.298138
    26  H    0.154992
    27  H    0.163995
    28  C   -0.028527
    29  C   -0.152692
    30  H    0.186627
    31  C   -0.325831
    32  H    0.189215
    33  H    0.151097
    34  C   -0.335414
    35  H    0.158768
    36  H    0.169740
    37  C   -0.142703
    38  H    0.159183
    39  C   -0.490599
    40  H    0.159595
    41  H    0.166198
    42  H    0.162804
    43  C   -0.147302
    44  H    0.156049
    45  C   -0.485899
    46  H    0.157248
    47  H    0.157368
    48  H    0.160504
    49  C   -0.482815
    50  H    0.168191
    51  H    0.162952
    52  H    0.169473
    53  O   -0.398437
    54  O   -0.464439
    55  H    0.459481
    56  O   -0.758789
    57  H    0.428758
    58  C   -0.309232
    59  H    0.151947
    60  H    0.161189
    61  C   -0.322047
    62  H    0.161190
    63  H    0.160089
    64  C   -0.300033
    65  H    0.151395
    66  H    0.150597
    67  C   -0.146077
    68  H    0.154907
    69  C   -0.476389
    70  H    0.156366
    71  H    0.158020
    72  H    0.157477
    73  C   -0.476056
    74  H    0.155645
    75  H    0.158023
    76  H    0.156245
 Sum of Mulliken charges =   0.00000

 Dipole moment (field-independent basis, Debye):
    X=              0.3086    Y=              1.2783    Z=             -2.1762  Tot=              2.5426
 Quadrupole moment (field-independent basis, Debye-Ang):
   XX=           -198.8079   YY=           -189.1241   ZZ=           -187.7464
   XY=              2.8953   XZ=            -10.4964   YZ=             -2.7195

 ESP charges:
               1
     1  C    0.505590
     2  H    0.011810
     3  C   -0.196957
     4  H    0.070649
     5  H    0.047845
     6  C   -0.012847
     7  C    0.351983
     8  C   -0.126593
     9  H    0.007934
    10  H    0.053135
    11  C   -0.177575
    12  H    0.026795
    13  H    0.052532
    14  C   -0.443233
    15  H    0.153479
    16  C    0.510228
    17  H    0.010371
    18  C   -0.225975
    19  H    0.002775
    20  C    0.053425
    21  H   -0.041974
    22  C    0.066569
    23  H   -0.023504
    24  H   -0.029271
    25  C   -0.151971
    26  H   -0.003318
    27  H    0.010372
    28  C    0.522892
    29  C    0.290482
    30  H   -0.066184
    31  C   -0.309458
    32  H    0.094519
    33  H    0.027821
    34  C    0.079228
    35  H   -0.005603
    36  H   -0.008292
    37  C   -0.110655
    38  H   -0.038731
    39  C   -0.531258
    40  H    0.111479
    41  H    0.106335
    42  H    0.096029
    43  C    0.210000
    44  H   -0.028241
    45  C   -0.349913
    46  H    0.063244
    47  H    0.081281
    48  H    0.074941
    49  C   -0.227268
    50  H    0.032683
    51  H    0.054383
    52  H    0.036135
    53  O   -0.316649
    54  O   -0.453752
    55  H    0.431204
    56  O   -0.749364
    57  H    0.414299
    58  C   -0.124003
    59  H    0.018250
    60  H   -0.006032
    61  C    0.225400
    62  H   -0.022949
    63  H   -0.034347
    64  C   -0.228992
    65  H    0.029081
    66  H    0.024250
    67  C    0.408514
    68  H   -0.076234
    69  C   -0.268650
    70  H    0.046108
    71  H    0.050988
    72  H    0.048729
    73  C   -0.269425
    74  H    0.045205
    75  H    0.051026
    76  H    0.049225
 Sum of ESP charges =   0.00000

 Normal termination of Gaussian 09 at Fri Apr 28 13:01:20 2017.
