 Gaussian 09, Revision D.01,
 Gaussian 09:  EM64L-G09RevD.01 24-Apr-2013

 ----------------------------------------------------------------------
 #P HF/6-31G* SCF(Conver=6) NoSymm Test Pop=chelpg IOp(6/33=2) GFInput
 GFPrint
 ----------------------------------------------------------------------

 ----------------------------------------------
 MEP - Input generated by R.E.D.-III.x MOLECULE
 ----------------------------------------------
 Symbolic Z-matrix:
 Charge =  0 Multiplicity = 1

                          Input orientation:
 ---------------------------------------------------------------------
 Center     Atomic      Atomic             Coordinates (Angstroms)
 Number     Number       Type             X           Y           Z
 ---------------------------------------------------------------------
      1          6           0        1.755970   -1.244618    0.142753
      2          1           0        1.884906   -1.276513   -0.945791
      3          6           0        3.142779   -1.215105    0.805812
      4          1           0        3.722752   -2.085933    0.484945
      5          1           0        2.996821   -1.314826    1.892838
      6          6           0        3.899084    0.062939    0.498604
      7          6           0        3.171219    1.382941    0.776818
      8          6           0        1.742967    1.284911    0.156168
      9          1           0        1.841301    1.333710   -0.936664
     10          1           0        1.157518    2.160770    0.455695
     11          6           0        0.965957    0.009256    0.517515
     12          1           0        0.745488   -0.014785    1.595126
     13          1           0        0.000000    0.000000    0.000000
     14          6           0        5.143114    0.000000    0.000000
     15          1           0        5.588110   -0.971057   -0.209638
     16          6           0        5.972668    1.196186   -0.362037
     17          1           0        7.027571    1.019764   -0.124840
     18          6           0        5.467676    2.485315    0.314033
     19          1           0        5.691903    2.361173    1.383764
     20          6           0        3.930843    2.582752    0.107705
     21          1           0        3.780364    2.471023   -0.976143
     22          6           0        3.349117    3.962750    0.493889
     23          1           0        3.285241    4.057176    1.582506
     24          1           0        2.319350    4.036590    0.125605
     25          6           0        4.150625    5.162122   -0.048029
     26          1           0        4.095838    5.179214   -1.145854
     27          1           0        3.674494    6.083004    0.303410
     28          6           0        5.630993    5.085414    0.371378
     29          6           0        6.183901    3.744752   -0.194974
     30          1           0        5.999728    3.787978   -1.277842
     31          6           0        7.704429    3.858452    0.000000
     32          1           0        8.255869    3.217974   -0.690661
     33          1           0        7.987905    3.560238    1.017776
     34          6           0        7.992308    5.366804   -0.235943
     35          1           0        8.587956    5.783400    0.585126
     36          1           0        8.575921    5.522312   -1.148664
     37          6           0        6.608789    6.091757   -0.327386
     38          1           0        6.305837    6.114844   -1.384359
     39          6           0        5.769213    5.186381    1.908357
     40          1           0        5.298793    4.347049    2.426804
     41          1           0        6.816102    5.213255    2.224654
     42          1           0        5.293989    6.100915    2.279576
     43          6           0        6.676713    7.558677    0.166144
     44          1           0        6.998298    7.535396    1.217760
     45          6           0        5.325114    8.296510    0.121491
     46          1           0        4.843843    8.214798   -0.859353
     47          1           0        5.464399    9.363035    0.335064
     48          1           0        4.623492    7.907089    0.863493
     49          6           0        3.059207    1.562218    2.315833
     50          1           0        2.387107    2.386630    2.571513
     51          1           0        2.664802    0.665482    2.799808
     52          1           0        4.036410    1.766303    2.764086
     53          8           0        5.872668    1.238572   -1.817342
     54          8           0        7.107278    1.794696   -2.378139
     55          1           0        7.375351    1.053134   -2.944289
     56          8           0        1.049959   -2.450285    0.447368
     57          1           0        0.869585   -2.472127    1.397708
     58          6           0        7.765725    8.377447   -0.580179
     59          1           0        7.809724    9.371767   -0.111911
     60          1           0        8.744239    7.919354   -0.397680
     61          6           0        7.562335    8.564155   -2.093552
     62          1           0        7.618334    7.594851   -2.604002
     63          1           0        6.549662    8.942358   -2.281324
     64          6           0        8.553101    9.550501   -2.741229
     65          1           0        8.442857   10.526847   -2.247202
     66          1           0        8.258492    9.707162   -3.789672
     67          6           0       10.046135    9.159063   -2.717499
     68          1           0       10.345251    8.998695   -1.671833
     69          6           0       10.323782    7.861214   -3.492592
     70          1           0       10.024786    7.964712   -4.543891
     71          1           0       11.391584    7.614815   -3.474089
     72          1           0        9.781990    7.006381   -3.075482
     73          6           0       10.904037   10.308885   -3.269767
     74          1           0       10.650823   10.517334   -4.317348
     75          1           0       11.971770   10.064705   -3.228843
     76          1           0       10.748930   11.232514   -2.700281
 ---------------------------------------------------------------------

 SCF Done:  E(RHF) =  -1273.67913831     A.U. after    9 cycles

 Alpha  occ. eigenvalues --  -20.62390 -20.62271 -20.55794 -11.28585 -11.27916
 Alpha  occ. eigenvalues --  -11.24660 -11.24299 -11.22828 -11.22623 -11.22490
 Alpha  occ. eigenvalues --  -11.22438 -11.22425 -11.22395 -11.22362 -11.22173
 Alpha  occ. eigenvalues --  -11.22079 -11.21998 -11.21553 -11.21519 -11.21286
 Alpha  occ. eigenvalues --  -11.21168 -11.21131 -11.21093 -11.20956 -11.20918
 Alpha  occ. eigenvalues --  -11.20840 -11.20800 -11.20775 -11.20676 -11.20430
 Alpha  occ. eigenvalues --   -1.45249  -1.35166  -1.22375  -1.15407  -1.13637
 Alpha  occ. eigenvalues --   -1.09401  -1.07723  -1.05498  -1.05448  -1.02849
 Alpha  occ. eigenvalues --   -1.01321  -0.99244  -0.97588  -0.96074  -0.92667
 Alpha  occ. eigenvalues --   -0.92179  -0.92019  -0.90771  -0.90533  -0.86001
 Alpha  occ. eigenvalues --   -0.83854  -0.82659  -0.82471  -0.79035  -0.78050
 Alpha  occ. eigenvalues --   -0.76773  -0.75145  -0.72463  -0.71703  -0.69884
 Alpha  occ. eigenvalues --   -0.68593  -0.66784  -0.66477  -0.64933  -0.63709
 Alpha  occ. eigenvalues --   -0.63521  -0.63142  -0.62358  -0.61938  -0.61747
 Alpha  occ. eigenvalues --   -0.60550  -0.60340  -0.59366  -0.58577  -0.58030
 Alpha  occ. eigenvalues --   -0.57401  -0.56515  -0.56276  -0.56010  -0.55952
 Alpha  occ. eigenvalues --   -0.55501  -0.54698  -0.54193  -0.53869  -0.53650
 Alpha  occ. eigenvalues --   -0.53196  -0.53053  -0.52863  -0.52401  -0.52247
 Alpha  occ. eigenvalues --   -0.50829  -0.50561  -0.50117  -0.49086  -0.48623
 Alpha  occ. eigenvalues --   -0.48254  -0.47864  -0.47368  -0.47297  -0.46723
 Alpha  occ. eigenvalues --   -0.46267  -0.46081  -0.45215  -0.44931  -0.44585
 Alpha  occ. eigenvalues --   -0.44463  -0.43663  -0.43563  -0.43203  -0.42833
 Alpha  occ. eigenvalues --   -0.42469  -0.42027  -0.41499  -0.39898  -0.38342
 Alpha  occ. eigenvalues --   -0.34436
 Alpha virt. eigenvalues --    0.15879   0.20477   0.21098   0.22028   0.22415
 Alpha virt. eigenvalues --    0.23287   0.23535   0.24190   0.24639   0.24843
 Alpha virt. eigenvalues --    0.25524   0.26159   0.26766   0.27031   0.27450

 Mulliken charges:
               1
     1  C    0.192581
     2  H    0.177340
     3  C   -0.368123
     4  H    0.192622
     5  H    0.154665
     6  C    0.085596
     7  C   -0.045395
     8  C   -0.326119
     9  H    0.171976
    10  H    0.173127
    11  C   -0.341688
    12  H    0.143620
    13  H    0.183637
    14  C   -0.249661
    15  H    0.187473
    16  C    0.158821
    17  H    0.189153
    18  C   -0.181102
    19  H    0.164336
    20  C   -0.169173
    21  H    0.188453
    22  C   -0.328826
    23  H    0.162681
    24  H    0.165165
    25  C   -0.298686
    26  H    0.156120
    27  H    0.163272
    28  C   -0.028502
    29  C   -0.164043
    30  H    0.193349
    31  C   -0.326331
    32  H    0.193285
    33  H    0.147037
    34  C   -0.338358
    35  H    0.156759
    36  H    0.169796
    37  C   -0.142000
    38  H    0.161256
    39  C   -0.492093
    40  H    0.160504
    41  H    0.165762
    42  H    0.161457
    43  C   -0.146728
    44  H    0.155353
    45  C   -0.486624
    46  H    0.157900
    47  H    0.156571
    48  H    0.160968
    49  C   -0.481891
    50  H    0.167639
    51  H    0.161785
    52  H    0.169464
    53  O   -0.393160
    54  O   -0.471736
    55  H    0.460704
    56  O   -0.759099
    57  H    0.428023
    58  C   -0.313075
    59  H    0.150484
    60  H    0.164820
    61  C   -0.319180
    62  H    0.160023
    63  H    0.160449
    64  C   -0.297532
    65  H    0.150541
    66  H    0.150314
    67  C   -0.152074
    68  H    0.156524
    69  C   -0.479543
    70  H    0.151911
    71  H    0.157399
    72  H    0.165060
    73  C   -0.471597
    74  H    0.151936
    75  H    0.157356
    76  H    0.157272
 Sum of Mulliken charges =   0.00000

 Dipole moment (field-independent basis, Debye):
    X=              0.5515    Y=             -0.0094    Z=              1.8313  Tot=              1.9125
 Quadrupole moment (field-independent basis, Debye-Ang):
   XX=           -185.2284   YY=           -201.2344   ZZ=           -187.1856
   XY=            -10.3470   XZ=              1.8323   YZ=              2.1593

 ESP charges:
               1
     1  C    0.539163
     2  H    0.001112
     3  C   -0.224269
     4  H    0.071455
     5  H    0.047821
     6  C    0.031520
     7  C    0.317182
     8  C   -0.034340
     9  H   -0.017856
    10  H    0.022983
    11  C   -0.188889
    12  H    0.022047
    13  H    0.046379
    14  C   -0.490184
    15  H    0.173888
    16  C    0.587760
    17  H   -0.029484
    18  C   -0.215024
    19  H   -0.014970
    20  C    0.077661
    21  H   -0.029378
    22  C    0.035154
    23  H   -0.010011
    24  H   -0.015515
    25  C   -0.208901
    26  H    0.007768
    27  H    0.036662
    28  C    0.438790
    29  C    0.309915
    30  H   -0.032229
    31  C   -0.217471
    32  H    0.048595
    33  H    0.012898
    34  C   -0.015184
    35  H    0.005377
    36  H    0.014549
    37  C   -0.021138
    38  H   -0.056035
    39  C   -0.515749
    40  H    0.110820
    41  H    0.104796
    42  H    0.098964
    43  C    0.232162
    44  H   -0.051915
    45  C   -0.337909
    46  H    0.061658
    47  H    0.074763
    48  H    0.068111
    49  C   -0.244167
    50  H    0.034687
    51  H    0.056940
    52  H    0.041281
    53  O   -0.354196
    54  O   -0.477693
    55  H    0.449670
    56  O   -0.752985
    57  H    0.413191
    58  C   -0.027383
    59  H   -0.006641
    60  H   -0.028747
    61  C    0.076079
    62  H   -0.018128
    63  H   -0.006471
    64  C   -0.147992
    65  H    0.014481
    66  H    0.004866
    67  C    0.479706
    68  H   -0.093866
    69  C   -0.304004
    70  H    0.056969
    71  H    0.050254
    72  H    0.060599
    73  C   -0.339483
    74  H    0.065289
    75  H    0.068033
    76  H    0.056210
 Sum of ESP charges =   0.00000

 Normal termination of Gaussian 09 at Fri Apr 28 12:47:58 2017.
