 Gaussian 09, Revision D.01,
 Gaussian 09:  EM64L-G09RevD.01 24-Apr-2013

 ----------------------------------------------------------------------
 #P HF/6-31G* SCF(Conver=6) NoSymm Test Pop=chelpg IOp(6/33=2) GFInput
 GFPrint
 ----------------------------------------------------------------------

 ----------------------------------------------
 MEP - Input generated by R.E.D.-III.x MOLECULE
 ----------------------------------------------
 Symbolic Z-matrix:
 Charge =  0 Multiplicity = 1

                          Input orientation:
 ---------------------------------------------------------------------
 Center     Atomic      Atomic             Coordinates (Angstroms)
 Number     Number       Type             X           Y           Z
 ---------------------------------------------------------------------
      1          6           0        1.758377   -1.248753    0.057344
      2          1           0        1.883500   -1.210365   -1.031743
      3          6           0        3.146547   -1.259662    0.716942
      4          1           0        3.725924   -2.109235    0.342327
      5          1           0        3.002894   -1.427382    1.795970
      6          6           0        3.905414    0.034846    0.489647
      7          6           0        3.173522    1.334280    0.848531
      8          6           0        1.744013    1.273181    0.226526
      9          1           0        1.839232    1.386132   -0.862009
     10          1           0        1.159078    2.130098    0.577648
     11          6           0        0.968290   -0.021906    0.512739
     12          1           0        0.752964   -0.112407    1.587729
     13          1           0        0.000000    0.000000    0.000000
     14          6           0        5.154457    0.000000    0.000000
     15          1           0        5.604596   -0.963329   -0.232548
     16          6           0        6.003833    1.209677   -0.264080
     17          1           0        7.036739    1.023340    0.056350
     18          6           0        5.465260    2.474492    0.428820
     19          1           0        5.701877    2.336302    1.493063
     20          6           0        3.926037    2.576774    0.253720
     21          1           0        3.747985    2.548971   -0.831324
     22          6           0        3.371010    3.928648    0.765131
     23          1           0        3.376657    3.945283    1.859676
     24          1           0        2.320302    4.026039    0.468536
     25          6           0        4.140762    5.165533    0.258633
     26          1           0        4.013203    5.259792   -0.829007
     27          1           0        3.693835    6.060892    0.705656
     28          6           0        5.645261    5.067927    0.577423
     29          6           0        6.153963    3.750848   -0.077064
     30          1           0        5.892343    3.835814   -1.140231
     31          6           0        7.686856    3.848085    0.000000
     32          1           0        8.172243    3.243203   -0.770981
     33          1           0        8.053926    3.489096    0.970031
     34          6           0        7.966888    5.368565   -0.172360
     35          1           0        8.605864    5.739396    0.635531
     36          1           0        8.499299    5.580854   -1.105805
     37          6           0        6.578124    6.082680   -0.169137
     38          1           0        6.220043    6.063757   -1.209615
     39          6           0        5.871833    5.088085    2.106613
     40          1           0        5.469817    4.196644    2.595320
     41          1           0        6.932005    5.146160    2.366460
     42          1           0        5.374654    5.951055    2.559364
     43          6           0        6.665752    7.600056    0.169948
     44          1           0        7.419471    7.968132   -0.543119
     45          6           0        7.188970    7.975672    1.570530
     46          1           0        6.420647    7.860268    2.341222
     47          1           0        7.510309    9.022134    1.588343
     48          1           0        8.052629    7.373479    1.867037
     49          6           0        3.065107    1.418625    2.395927
     50          1           0        2.383554    2.217060    2.703862
     51          1           0        2.685190    0.488752    2.825737
     52          1           0        4.041864    1.607688    2.851960
     53          8           0        6.062132    1.505663   -1.686909
     54          8           0        6.797054    0.427920   -2.331810
     55          1           0        6.080437   -0.026491   -2.805027
     56          8           0        1.053915   -2.472104    0.284610
     57          1           0        0.883684   -2.560514    1.232961
     58          6           0        5.349021    8.345443   -0.147846
     59          1           0        4.962488    7.984001   -1.109728
     60          1           0        4.594063    8.071172    0.600016
     61          6           0        5.431397    9.885431   -0.184759
     62          1           0        4.422377   10.272563   -0.375952
     63          1           0        5.701428   10.261682    0.810130
     64          6           0        6.411138   10.490792   -1.208039
     65          1           0        7.437847   10.203776   -0.943321
     66          1           0        6.375864   11.586030   -1.110318
     67          6           0        6.172661   10.130927   -2.689820
     68          1           0        6.223315    9.037126   -2.791166
     69          6           0        4.792296   10.585901   -3.189925
     70          1           0        4.680266   11.673153   -3.086788
     71          1           0        4.658638   10.337750   -4.249002
     72          1           0        3.975235   10.112943   -2.635610
     73          6           0        7.286387   10.725580   -3.566677
     74          1           0        7.283492   11.821869   -3.512168
     75          1           0        7.158149   10.445152   -4.618386
     76          1           0        8.275688   10.379550   -3.245701
 ---------------------------------------------------------------------

 SCF Done:  E(RHF) =  -1273.67662967     A.U. after    9 cycles

 Alpha  occ. eigenvalues --  -20.62347 -20.62021 -20.56069 -11.28470 -11.28239
 Alpha  occ. eigenvalues --  -11.24966 -11.24533 -11.23089 -11.22988 -11.22961
 Alpha  occ. eigenvalues --  -11.22927 -11.22678 -11.22643 -11.22407 -11.22360
 Alpha  occ. eigenvalues --  -11.22358 -11.22256 -11.21942 -11.21906 -11.21525
 Alpha  occ. eigenvalues --  -11.21521 -11.21405 -11.21345 -11.21307 -11.21088
 Alpha  occ. eigenvalues --  -11.20974 -11.20961 -11.20905 -11.20901 -11.20807
 Alpha  occ. eigenvalues --   -1.45654  -1.35446  -1.22089  -1.15592  -1.13904
 Alpha  occ. eigenvalues --   -1.09645  -1.07898  -1.05787  -1.05647  -1.03091
 Alpha  occ. eigenvalues --   -1.01575  -0.99269  -0.97955  -0.96323  -0.92678
 Alpha  occ. eigenvalues --   -0.92414  -0.92348  -0.91843  -0.90596  -0.86234
 Alpha  occ. eigenvalues --   -0.84361  -0.83078  -0.82625  -0.78772  -0.78439
 Alpha  occ. eigenvalues --   -0.76997  -0.74227  -0.73284  -0.71894  -0.70762
 Alpha  occ. eigenvalues --   -0.69033  -0.67100  -0.65270  -0.64860  -0.64406
 Alpha  occ. eigenvalues --   -0.63789  -0.63457  -0.62952  -0.62613  -0.61362
 Alpha  occ. eigenvalues --   -0.61139  -0.59695  -0.59187  -0.59031  -0.58400
 Alpha  occ. eigenvalues --   -0.57855  -0.57715  -0.57405  -0.56555  -0.55909
 Alpha  occ. eigenvalues --   -0.55474  -0.54690  -0.54219  -0.53920  -0.53769
 Alpha  occ. eigenvalues --   -0.53352  -0.53232  -0.52877  -0.52183  -0.51853
 Alpha  occ. eigenvalues --   -0.50900  -0.50733  -0.49980  -0.49644  -0.49050
 Alpha  occ. eigenvalues --   -0.48655  -0.48182  -0.47988  -0.47373  -0.47105
 Alpha  occ. eigenvalues --   -0.46763  -0.46171  -0.45469  -0.45307  -0.45101
 Alpha  occ. eigenvalues --   -0.44351  -0.44178  -0.43690  -0.42987  -0.42882
 Alpha  occ. eigenvalues --   -0.42680  -0.42303  -0.41489  -0.40176  -0.38835
 Alpha  occ. eigenvalues --   -0.34688
 Alpha virt. eigenvalues --    0.16027   0.19811   0.20995   0.21693   0.22320
 Alpha virt. eigenvalues --    0.22991   0.23344   0.23939   0.24256   0.24587
 Alpha virt. eigenvalues --    0.25519   0.25657   0.26401   0.26723   0.27025

 Mulliken charges:
               1
     1  C    0.194121
     2  H    0.172007
     3  C   -0.368763
     4  H    0.192276
     5  H    0.155688
     6  C    0.083563
     7  C   -0.044795
     8  C   -0.325410
     9  H    0.168023
    10  H    0.173720
    11  C   -0.341418
    12  H    0.145109
    13  H    0.184052
    14  C   -0.277663
    15  H    0.193502
    16  C    0.192965
    17  H    0.186720
    18  C   -0.210065
    19  H    0.171893
    20  C   -0.157365
    21  H    0.177937
    22  C   -0.330003
    23  H    0.165266
    24  H    0.165270
    25  C   -0.298925
    26  H    0.155064
    27  H    0.162226
    28  C   -0.023547
    29  C   -0.156100
    30  H    0.187880
    31  C   -0.325616
    32  H    0.188510
    33  H    0.151437
    34  C   -0.328597
    35  H    0.159045
    36  H    0.166923
    37  C   -0.153158
    38  H    0.155656
    39  C   -0.486352
    40  H    0.158258
    41  H    0.167064
    42  H    0.161076
    43  C   -0.140605
    44  H    0.157033
    45  C   -0.486659
    46  H    0.155469
    47  H    0.162387
    48  H    0.161073
    49  C   -0.482540
    50  H    0.168229
    51  H    0.162889
    52  H    0.169468
    53  O   -0.398536
    54  O   -0.464308
    55  H    0.459424
    56  O   -0.758802
    57  H    0.428768
    58  C   -0.312715
    59  H    0.156651
    60  H    0.154495
    61  C   -0.316073
    62  H    0.158523
    63  H    0.159359
    64  C   -0.304129
    65  H    0.155523
    66  H    0.151427
    67  C   -0.151800
    68  H    0.155947
    69  C   -0.476872
    70  H    0.151980
    71  H    0.158528
    72  H    0.161737
    73  C   -0.471655
    74  H    0.152284
    75  H    0.158473
    76  H    0.157552
 Sum of Mulliken charges =   0.00000

 Dipole moment (field-independent basis, Debye):
    X=             -1.3362    Y=              0.4235    Z=              2.1237  Tot=              2.5446
 Quadrupole moment (field-independent basis, Debye-Ang):
   XX=           -209.8981   YY=           -196.0797   ZZ=           -187.9953
   XY=             -5.7971   XZ=              8.5449   YZ=              1.1615

 ESP charges:
               1
     1  C    0.501915
     2  H    0.011919
     3  C   -0.214545
     4  H    0.075442
     5  H    0.051529
     6  C    0.000951
     7  C    0.289074
     8  C   -0.085546
     9  H   -0.003201
    10  H    0.041909
    11  C   -0.165487
    12  H    0.023926
    13  H    0.046105
    14  C   -0.431369
    15  H    0.148305
    16  C    0.530162
    17  H   -0.003529
    18  C   -0.261553
    19  H    0.001389
    20  C    0.088312
    21  H   -0.044101
    22  C    0.092453
    23  H   -0.016560
    24  H   -0.030736
    25  C   -0.234041
    26  H    0.017179
    27  H    0.031143
    28  C    0.459157
    29  C    0.394083
    30  H   -0.096888
    31  C   -0.226024
    32  H    0.075852
    33  H    0.005983
    34  C   -0.005747
    35  H    0.016133
    36  H   -0.001268
    37  C   -0.185626
    38  H    0.015998
    39  C   -0.536120
    40  H    0.107441
    41  H    0.120694
    42  H    0.107803
    43  C    0.340386
    44  H   -0.055601
    45  C   -0.359390
    46  H    0.068921
    47  H    0.079652
    48  H    0.071060
    49  C   -0.198432
    50  H    0.022576
    51  H    0.050028
    52  H    0.032795
    53  O   -0.328500
    54  O   -0.450786
    55  H    0.429955
    56  O   -0.746963
    57  H    0.413902
    58  C   -0.110738
    59  H   -0.012476
    60  H    0.015653
    61  C    0.054801
    62  H   -0.018420
    63  H   -0.010999
    64  C   -0.085544
    65  H   -0.000878
    66  H   -0.007839
    67  C    0.500308
    68  H   -0.093577
    69  C   -0.338322
    70  H    0.063681
    71  H    0.059813
    72  H    0.071162
    73  C   -0.412979
    74  H    0.081345
    75  H    0.087732
    76  H    0.075158
 Sum of ESP charges =   0.00000

 Normal termination of Gaussian 09 at Fri Apr 28 12:39:32 2017.
