 Gaussian 09, Revision D.01,
 Gaussian 09:  EM64L-G09RevD.01 24-Apr-2013

 ----------------------------------------------------------------------
 #P HF/6-31G* SCF(Conver=6) NoSymm Test Pop=chelpg IOp(6/33=2) GFInput
 GFPrint
 ----------------------------------------------------------------------

 ----------------------------------------------
 MEP - Input generated by R.E.D.-III.x MOLECULE
 ----------------------------------------------
 Symbolic Z-matrix:
 Charge =  0 Multiplicity = 1

                          Input orientation:
 ---------------------------------------------------------------------
 Center     Atomic      Atomic             Coordinates (Angstroms)
 Number     Number       Type             X           Y           Z
 ---------------------------------------------------------------------
      1          6           0       -0.975062    1.980409    1.698740
      2          1           0       -0.985732    0.996786    2.183201
      3          6           0        0.370905    2.662659    1.985233
      4          1           0        0.523963    2.737443    3.066245
      5          1           0        0.308924    3.694461    1.603151
      6          6           0        1.542315    1.946007    1.338847
      7          6           0        1.423159    1.629643   -0.157503
      8          6           0        0.011777    1.016224   -0.416320
      9          1           0        0.000000    0.000000    0.000000
     10          1           0       -0.145227    0.913013   -1.495476
     11          6           0       -1.160479    1.800172    0.192643
     12          1           0       -1.249853    2.790115   -0.279205
     13          1           0       -2.102810    1.274782    0.000000
     14          6           0        2.616009    1.629846    2.076915
     15          1           0        2.619477    1.854254    3.142458
     16          6           0        3.854082    0.966886    1.555916
     17          1           0        4.735011    1.526942    1.902443
     18          6           0        3.901584    0.885030    0.016469
     19          1           0        4.209266    1.889886   -0.309121
     20          6           0        2.503814    0.574563   -0.581228
     21          1           0        2.190143   -0.373027   -0.125592
     22          6           0        2.573639    0.344741   -2.108701
     23          1           0        2.741208    1.295039   -2.626813
     24          1           0        1.606683   -0.026034   -2.467458
     25          6           0        3.668887   -0.648894   -2.547127
     26          1           0        3.434516   -1.650068   -2.157289
     27          1           0        3.646830   -0.727954   -3.638422
     28          6           0        5.061196   -0.231879   -2.030230
     29          6           0        4.943045   -0.126049   -0.482010
     30          1           0        4.590641   -1.115839   -0.154442
     31          6           0        6.395224    0.000000    0.000000
     32          1           0        6.513859   -0.316177    1.039715
     33          1           0        6.735347    1.041720   -0.059256
     34          6           0        7.186054   -0.900583   -0.987881
     35          1           0        8.052671   -0.367116   -1.396167
     36          1           0        7.581170   -1.787246   -0.483186
     37          6           0        6.202277   -1.303231   -2.140113
     38          1           0        5.740838   -2.267400   -1.872383
     39          6           0        5.513211    1.094108   -2.685058
     40          1           0        4.848809    1.927674   -2.443963
     41          1           0        6.520666    1.383434   -2.371363
     42          1           0        5.527543    0.999683   -3.775922
     43          6           0        6.930596   -1.518554   -3.493092
     44          1           0        7.448313   -0.581264   -3.740799
     45          6           0        5.977845   -1.855176   -4.652720
     46          1           0        5.377677   -2.744951   -4.423619
     47          1           0        6.531503   -2.059438   -5.574107
     48          1           0        5.289589   -1.036037   -4.871444
     49          6           0        1.568294    2.956014   -0.951639
     50          1           0        1.311336    2.819120   -2.006481
     51          1           0        0.909675    3.734748   -0.558703
     52          1           0        2.590810    3.342469   -0.895946
     53          8           0        4.111554   -0.271333    2.261921
     54          8           0        2.965789   -1.173777    2.083321
     55          1           0        3.448573   -2.004656    1.946839
     56          8           0       -2.063818    2.682309    2.305688
     57          1           0       -2.124012    3.562527    1.908516
     58          6           0        8.003601   -2.627047   -3.337981
     59          1           0        8.643764   -2.390297   -2.480172
     60          1           0        7.488937   -3.565631   -3.082865
     61          6           0        8.923714   -2.887844   -4.547586
     62          1           0        9.573164   -3.732405   -4.284772
     63          1           0        8.332740   -3.224190   -5.407439
     64          6           0        9.791882   -1.682848   -4.945817
     65          1           0       10.313295   -1.315100   -4.049675
     66          1           0        9.143321   -0.860661   -5.276719
     67          6           0       10.845438   -1.931884   -6.051452
     68          1           0       11.348537   -0.966474   -6.210089
     69          6           0       11.928481   -2.937904   -5.627503
     70          1           0       11.521187   -3.948784   -5.511302
     71          1           0       12.724070   -2.992245   -6.379374
     72          1           0       12.388777   -2.650773   -4.674751
     73          6           0       10.211395   -2.335806   -7.392995
     74          1           0        9.739121   -3.323296   -7.335687
     75          1           0       10.968646   -2.381586   -8.183979
     76          1           0        9.445742   -1.615950   -7.705686
 ---------------------------------------------------------------------

 SCF Done:  E(RHF) =  -1273.67772031     A.U. after    9 cycles

 Alpha  occ. eigenvalues --  -20.62369 -20.62232 -20.55509 -11.28742 -11.27570
 Alpha  occ. eigenvalues --  -11.24478 -11.23812 -11.22960 -11.22732 -11.22647
 Alpha  occ. eigenvalues --  -11.22486 -11.22444 -11.22427 -11.22344 -11.22262
 Alpha  occ. eigenvalues --  -11.22153 -11.21956 -11.21901 -11.21871 -11.21743
 Alpha  occ. eigenvalues --  -11.21625 -11.21617 -11.21585 -11.21534 -11.21534
 Alpha  occ. eigenvalues --  -11.21256 -11.21208 -11.21150 -11.21107 -11.21003
 Alpha  occ. eigenvalues --   -1.45203  -1.34865  -1.22331  -1.15739  -1.13798
 Alpha  occ. eigenvalues --   -1.09746  -1.07966  -1.05775  -1.05488  -1.03045
 Alpha  occ. eigenvalues --   -1.01476  -0.99394  -0.97866  -0.96127  -0.93024
 Alpha  occ. eigenvalues --   -0.92494  -0.92105  -0.91288  -0.90836  -0.85820
 Alpha  occ. eigenvalues --   -0.84699  -0.82725  -0.82425  -0.78985  -0.77879
 Alpha  occ. eigenvalues --   -0.76913  -0.74999  -0.73060  -0.72203  -0.70466
 Alpha  occ. eigenvalues --   -0.69004  -0.66541  -0.65992  -0.64962  -0.64511
 Alpha  occ. eigenvalues --   -0.63600  -0.63044  -0.62725  -0.61326  -0.61165
 Alpha  occ. eigenvalues --   -0.60529  -0.60211  -0.59687  -0.59055  -0.58748
 Alpha  occ. eigenvalues --   -0.57903  -0.57448  -0.56530  -0.56286  -0.55747
 Alpha  occ. eigenvalues --   -0.55300  -0.54991  -0.54436  -0.54069  -0.53786
 Alpha  occ. eigenvalues --   -0.53502  -0.53165  -0.52671  -0.52314  -0.52039
 Alpha  occ. eigenvalues --   -0.51299  -0.51034  -0.50386  -0.50171  -0.49234
 Alpha  occ. eigenvalues --   -0.48185  -0.47960  -0.47743  -0.47287  -0.46920
 Alpha  occ. eigenvalues --   -0.46629  -0.45920  -0.45557  -0.45261  -0.44961
 Alpha  occ. eigenvalues --   -0.44932  -0.44193  -0.43800  -0.43132  -0.43068
 Alpha  occ. eigenvalues --   -0.42478  -0.42203  -0.41520  -0.40126  -0.38624
 Alpha  occ. eigenvalues --   -0.34015
 Alpha virt. eigenvalues --    0.16769   0.20062   0.20849   0.21341   0.22502
 Alpha virt. eigenvalues --    0.22999   0.23376   0.24217   0.24830   0.25349
 Alpha virt. eigenvalues --    0.25468   0.25920   0.26579   0.26795   0.27112

 Mulliken charges:
               1
     1  C    0.192468
     2  H    0.179723
     3  C   -0.368482
     4  H    0.194511
     5  H    0.151385
     6  C    0.082648
     7  C   -0.047101
     8  C   -0.326845
     9  H    0.172655
    10  H    0.170343
    11  C   -0.340478
    12  H    0.142552
    13  H    0.182257
    14  C   -0.239139
    15  H    0.193189
    16  C    0.175315
    17  H    0.190577
    18  C   -0.200792
    19  H    0.166831
    20  C   -0.162899
    21  H    0.193665
    22  C   -0.329544
    23  H    0.162260
    24  H    0.166132
    25  C   -0.297248
    26  H    0.150278
    27  H    0.164544
    28  C   -0.030063
    29  C   -0.141522
    30  H    0.152665
    31  C   -0.326266
    32  H    0.183877
    33  H    0.154142
    34  C   -0.336553
    35  H    0.160298
    36  H    0.167954
    37  C   -0.134135
    38  H    0.149961
    39  C   -0.490526
    40  H    0.162531
    41  H    0.165630
    42  H    0.163511
    43  C   -0.155376
    44  H    0.158505
    45  C   -0.485154
    46  H    0.152823
    47  H    0.163935
    48  H    0.161868
    49  C   -0.479713
    50  H    0.165548
    51  H    0.162625
    52  H    0.166048
    53  O   -0.397580
    54  O   -0.468477
    55  H    0.460937
    56  O   -0.759643
    57  H    0.427272
    58  C   -0.308582
    59  H    0.164629
    60  H    0.149876
    61  C   -0.318626
    62  H    0.160350
    63  H    0.158976
    64  C   -0.305215
    65  H    0.150059
    66  H    0.155317
    67  C   -0.145746
    68  H    0.155278
    69  C   -0.476493
    70  H    0.156037
    71  H    0.158678
    72  H    0.156957
    73  C   -0.477146
    74  H    0.156608
    75  H    0.158985
    76  H    0.156132
 Sum of Mulliken charges =   0.00000

 Dipole moment (field-independent basis, Debye):
    X=              1.4437    Y=              0.5620    Z=             -2.7173  Tot=              3.1280
 Quadrupole moment (field-independent basis, Debye-Ang):
   XX=           -191.0918   YY=           -179.8563   ZZ=           -201.0936
   XY=              0.3559   XZ=              0.9626   YZ=             -2.7986

 ESP charges:
               1
     1  C    0.548885
     2  H    0.008539
     3  C   -0.187564
     4  H    0.061854
     5  H    0.033715
     6  C    0.012379
     7  C    0.206524
     8  C   -0.060519
     9  H   -0.005722
    10  H    0.038276
    11  C   -0.212689
    12  H    0.033956
    13  H    0.054030
    14  C   -0.444105
    15  H    0.172338
    16  C    0.635380
    17  H   -0.044040
    18  C   -0.261719
    19  H   -0.021467
    20  C    0.330303
    21  H   -0.080180
    22  C   -0.101287
    23  H    0.008658
    24  H    0.003060
    25  C   -0.158705
    26  H   -0.011765
    27  H    0.039519
    28  C    0.525158
    29  C    0.226496
    30  H   -0.077887
    31  C   -0.098730
    32  H    0.010926
    33  H    0.004345
    34  C   -0.019137
    35  H   -0.001819
    36  H    0.017669
    37  C   -0.283428
    38  H    0.014900
    39  C   -0.463582
    40  H    0.098712
    41  H    0.091394
    42  H    0.074229
    43  C    0.476952
    44  H   -0.070523
    45  C   -0.399908
    46  H    0.063215
    47  H    0.091341
    48  H    0.067897
    49  C   -0.304188
    50  H    0.057071
    51  H    0.083051
    52  H    0.052284
    53  O   -0.360488
    54  O   -0.462536
    55  H    0.444717
    56  O   -0.762973
    57  H    0.416487
    58  C   -0.153784
    59  H    0.019928
    60  H    0.009710
    61  C    0.092723
    62  H   -0.016950
    63  H   -0.023881
    64  C   -0.083904
    65  H   -0.008326
    66  H   -0.022052
    67  C    0.433180
    68  H   -0.089383
    69  C   -0.300587
    70  H    0.057799
    71  H    0.056641
    72  H    0.052719
    73  C   -0.290249
    74  H    0.050947
    75  H    0.055842
    76  H    0.050327
 Sum of ESP charges =   0.00000

 Normal termination of Gaussian 09 at Fri Apr 28 13:26:51 2017.
