 Gaussian 09, Revision D.01,
 Gaussian 09:  EM64L-G09RevD.01 24-Apr-2013

 ----------------------------------------------------------------------
 #P HF/6-31G* SCF(Conver=6) NoSymm Test Pop=chelpg IOp(6/33=2) GFInput
 GFPrint
 ----------------------------------------------------------------------

 ----------------------------------------------
 MEP - Input generated by R.E.D.-III.x MOLECULE
 ----------------------------------------------
 Symbolic Z-matrix:
 Charge =  0 Multiplicity = 1

                          Input orientation:
 ---------------------------------------------------------------------
 Center     Atomic      Atomic             Coordinates (Angstroms)
 Number     Number       Type             X           Y           Z
 ---------------------------------------------------------------------
      1          6           0       -0.959780    2.003720    1.691057
      2          1           0       -0.979960    1.023566    2.183113
      3          6           0        0.393848    2.674188    1.974385
      4          1           0        0.545333    2.756514    3.055155
      5          1           0        0.346017    3.702818    1.583636
      6          6           0        1.552883    1.930398    1.336728
      7          6           0        1.432766    1.621889   -0.161094
      8          6           0        0.018844    1.015122   -0.419440
      9          1           0        0.000000    0.000000    0.000000
     10          1           0       -0.138113    0.908329   -1.498182
     11          6           0       -1.147612    1.810967    0.186285
     12          1           0       -1.231659    2.797036   -0.294096
     13          1           0       -2.093586    1.290021    0.000000
     14          6           0        2.613109    1.580749    2.081558
     15          1           0        2.622232    1.833820    3.140128
     16          6           0        3.817655    0.848372    1.564673
     17          1           0        4.732803    1.277095    1.992442
     18          6           0        3.905966    0.864456    0.027847
     19          1           0        4.212285    1.888720   -0.226313
     20          6           0        2.515730    0.573510   -0.599265
     21          1           0        2.194623   -0.389669   -0.176175
     22          6           0        2.596312    0.384118   -2.134034
     23          1           0        2.755652    1.350243   -2.623259
     24          1           0        1.633825    0.014006   -2.505545
     25          6           0        3.705686   -0.582543   -2.596358
     26          1           0        3.476851   -1.597575   -2.243387
     27          1           0        3.701144   -0.621203   -3.692118
     28          6           0        5.085586   -0.164099   -2.053422
     29          6           0        4.958415   -0.120479   -0.502907
     30          1           0        4.611918   -1.120980   -0.211714
     31          6           0        6.407032    0.000000    0.000000
     32          1           0        6.517771   -0.386121    1.017150
     33          1           0        6.729683    1.048911    0.016479
     34          6           0        7.226695   -0.817337   -1.039456
     35          1           0        8.052893   -0.220185   -1.438628
     36          1           0        7.680793   -1.707370   -0.590564
     37          6           0        6.229947   -1.231069   -2.169200
     38          1           0        5.762550   -2.165320   -1.829184
     39          6           0        5.499744    1.204243   -2.642487
     40          1           0        4.859898    2.016367   -2.287562
     41          1           0        6.528053    1.470590   -2.385224
     42          1           0        5.425353    1.194942   -3.733779
     43          6           0        6.944585   -1.606490   -3.499296
     44          1           0        7.712797   -2.328461   -3.181812
     45          6           0        7.711857   -0.479990   -4.221164
     46          1           0        7.042032    0.191039   -4.766910
     47          1           0        8.398878   -0.916233   -4.955289
     48          1           0        8.311653    0.128683   -3.538252
     49          6           0        1.578408    2.955339   -0.944666
     50          1           0        1.305994    2.830140   -1.996787
     51          1           0        0.932558    3.736561   -0.536832
     52          1           0        2.605147    3.331518   -0.899492
     53          8           0        3.791445   -0.548964    1.967214
     54          8           0        3.961677   -0.594918    3.411703
     55          1           0        3.068839   -0.853543    3.694395
     56          8           0       -2.041747    2.718675    2.293272
     57          1           0       -2.101026    3.593685    1.884606
     58          6           0        6.049310   -2.338375   -4.529000
     59          1           0        5.259380   -1.655964   -4.868038
     60          1           0        6.663885   -2.532036   -5.418638
     61          6           0        5.395376   -3.661898   -4.086327
     62          1           0        4.687363   -3.472208   -3.270948
     63          1           0        4.783531   -4.030238   -4.919852
     64          6           0        6.359850   -4.774309   -3.631625
     65          1           0        5.760351   -5.645620   -3.328868
     66          1           0        6.887388   -4.448968   -2.724881
     67          6           0        7.408523   -5.245634   -4.661348
     68          1           0        8.019685   -4.379070   -4.952716
     69          6           0        8.351306   -6.278888   -4.023698
     70          1           0        7.797877   -7.175453   -3.716019
     71          1           0        9.130389   -6.594774   -4.726900
     72          1           0        8.846701   -5.872907   -3.134222
     73          6           0        6.765616   -5.816988   -5.935199
     74          1           0        6.122762   -6.674035   -5.695395
     75          1           0        7.531491   -6.163665   -6.638331
     76          1           0        6.151526   -5.075846   -6.456873
 ---------------------------------------------------------------------

 SCF Done:  E(RHF) =  -1273.67562272     A.U. after    9 cycles

 Alpha  occ. eigenvalues --  -20.62359 -20.62034 -20.56076 -11.28482 -11.28247
 Alpha  occ. eigenvalues --  -11.24983 -11.24545 -11.23098 -11.23013 -11.22974
 Alpha  occ. eigenvalues --  -11.22945 -11.22692 -11.22688 -11.22418 -11.22380
 Alpha  occ. eigenvalues --  -11.22356 -11.22269 -11.21944 -11.21886 -11.21598
 Alpha  occ. eigenvalues --  -11.21467 -11.21378 -11.21357 -11.21325 -11.21107
 Alpha  occ. eigenvalues --  -11.20971 -11.20953 -11.20915 -11.20891 -11.20817
 Alpha  occ. eigenvalues --   -1.45666  -1.35454  -1.22103  -1.15609  -1.13914
 Alpha  occ. eigenvalues --   -1.09595  -1.07888  -1.05805  -1.05618  -1.03120
 Alpha  occ. eigenvalues --   -1.01515  -0.99522  -0.97960  -0.96426  -0.92645
 Alpha  occ. eigenvalues --   -0.92453  -0.92323  -0.91603  -0.90610  -0.86247
 Alpha  occ. eigenvalues --   -0.84036  -0.82948  -0.82593  -0.79364  -0.78448
 Alpha  occ. eigenvalues --   -0.77089  -0.74700  -0.73201  -0.71705  -0.70690
 Alpha  occ. eigenvalues --   -0.69002  -0.67103  -0.65195  -0.64907  -0.64416
 Alpha  occ. eigenvalues --   -0.63797  -0.63407  -0.62778  -0.62162  -0.61335
 Alpha  occ. eigenvalues --   -0.61140  -0.59826  -0.59461  -0.59083  -0.58173
 Alpha  occ. eigenvalues --   -0.57789  -0.57735  -0.57506  -0.56698  -0.55896
 Alpha  occ. eigenvalues --   -0.55400  -0.55259  -0.54319  -0.54172  -0.53872
 Alpha  occ. eigenvalues --   -0.53248  -0.53090  -0.52782  -0.52157  -0.51282
 Alpha  occ. eigenvalues --   -0.50799  -0.50639  -0.50273  -0.49670  -0.49260
 Alpha  occ. eigenvalues --   -0.49044  -0.48115  -0.48061  -0.47319  -0.47016
 Alpha  occ. eigenvalues --   -0.46698  -0.46240  -0.45464  -0.45188  -0.44684
 Alpha  occ. eigenvalues --   -0.44397  -0.44245  -0.44037  -0.43241  -0.42875
 Alpha  occ. eigenvalues --   -0.42483  -0.41967  -0.41584  -0.40183  -0.38897
 Alpha  occ. eigenvalues --   -0.34700
 Alpha virt. eigenvalues --    0.16015   0.19825   0.20942   0.21683   0.22291
 Alpha virt. eigenvalues --    0.22784   0.23129   0.23681   0.24178   0.24574
 Alpha virt. eigenvalues --    0.25337   0.25873   0.26506   0.26589   0.27055

 Mulliken charges:
               1
     1  C    0.194117
     2  H    0.172031
     3  C   -0.368778
     4  H    0.192313
     5  H    0.155710
     6  C    0.083538
     7  C   -0.044861
     8  C   -0.325458
     9  H    0.168021
    10  H    0.173730
    11  C   -0.341408
    12  H    0.145128
    13  H    0.184097
    14  C   -0.277592
    15  H    0.193551
    16  C    0.193079
    17  H    0.186840
    18  C   -0.210461
    19  H    0.172028
    20  C   -0.157513
    21  H    0.177972
    22  C   -0.329437
    23  H    0.165720
    24  H    0.165485
    25  C   -0.302274
    26  H    0.156899
    27  H    0.162130
    28  C   -0.022669
    29  C   -0.156415
    30  H    0.187981
    31  C   -0.325421
    32  H    0.188225
    33  H    0.151632
    34  C   -0.328343
    35  H    0.158950
    36  H    0.166213
    37  C   -0.156643
    38  H    0.162992
    39  C   -0.487362
    40  H    0.158410
    41  H    0.167342
    42  H    0.161495
    43  C   -0.147062
    44  H    0.157226
    45  C   -0.481435
    46  H    0.155726
    47  H    0.157396
    48  H    0.160444
    49  C   -0.482483
    50  H    0.168218
    51  H    0.162951
    52  H    0.169515
    53  O   -0.398599
    54  O   -0.464241
    55  H    0.459462
    56  O   -0.758783
    57  H    0.428777
    58  C   -0.309060
    59  H    0.155179
    60  H    0.155959
    61  C   -0.320702
    62  H    0.162454
    63  H    0.158270
    64  C   -0.303541
    65  H    0.151662
    66  H    0.156412
    67  C   -0.152030
    68  H    0.155186
    69  C   -0.471584
    70  H    0.152730
    71  H    0.157833
    72  H    0.157848
    73  C   -0.476788
    74  H    0.152181
    75  H    0.158119
    76  H    0.161767
 Sum of Mulliken charges =   0.00000

 Dipole moment (field-independent basis, Debye):
    X=             -0.7786    Y=              1.6356    Z=             -1.8008  Tot=              2.5542
 Quadrupole moment (field-independent basis, Debye-Ang):
   XX=           -205.7714   YY=           -185.4641   ZZ=           -195.3444
   XY=              5.4465   XZ=             -1.8496   YZ=             -1.9299

 ESP charges:
               1
     1  C    0.514900
     2  H    0.010318
     3  C   -0.217677
     4  H    0.073549
     5  H    0.051873
     6  C    0.013337
     7  C    0.255179
     8  C   -0.055748
     9  H   -0.004795
    10  H    0.036483
    11  C   -0.202625
    12  H    0.033861
    13  H    0.054275
    14  C   -0.434299
    15  H    0.154525
    16  C    0.464693
    17  H    0.004272
    18  C   -0.090737
    19  H   -0.033477
    20  C    0.079407
    21  H   -0.055503
    22  C    0.138757
    23  H   -0.020921
    24  H   -0.035062
    25  C   -0.398646
    26  H    0.080992
    27  H    0.078002
    28  C    0.488882
    29  C    0.256814
    30  H   -0.091727
    31  C   -0.171940
    32  H    0.066891
    33  H   -0.003607
    34  C   -0.035819
    35  H    0.010171
    36  H   -0.001986
    37  C   -0.058707
    38  H    0.003044
    39  C   -0.517568
    40  H    0.104469
    41  H    0.113138
    42  H    0.103194
    43  C    0.317245
    44  H   -0.054085
    45  C   -0.376408
    46  H    0.070269
    47  H    0.076956
    48  H    0.079861
    49  C   -0.205633
    50  H    0.025581
    51  H    0.053092
    52  H    0.034291
    53  O   -0.312384
    54  O   -0.448945
    55  H    0.428086
    56  O   -0.748560
    57  H    0.414489
    58  C   -0.185939
    59  H    0.019914
    60  H    0.040491
    61  C    0.025978
    62  H   -0.029535
    63  H    0.003659
    64  C   -0.039337
    65  H   -0.011244
    66  H   -0.011209
    67  C    0.457734
    68  H   -0.079598
    69  C   -0.399065
    70  H    0.079818
    71  H    0.084419
    72  H    0.073387
    73  C   -0.331069
    74  H    0.064655
    75  H    0.061763
    76  H    0.061143
 Sum of ESP charges =   0.00000

 Normal termination of Gaussian 09 at Fri Apr 28 12:16:58 2017.
