 Gaussian 09, Revision D.01,
 Gaussian 09:  EM64L-G09RevD.01 24-Apr-2013

 ----------------------------------------------------------------------
 #P HF/6-31G* SCF(Conver=6) NoSymm Test Pop=chelpg IOp(6/33=2) GFInput
 GFPrint
 ----------------------------------------------------------------------

 ----------------------------------------------
 MEP - Input generated by R.E.D.-III.x MOLECULE
 ----------------------------------------------
 Symbolic Z-matrix:
 Charge =  0 Multiplicity = 1

                          Input orientation:
 ---------------------------------------------------------------------
 Center     Atomic      Atomic             Coordinates (Angstroms)
 Number     Number       Type             X           Y           Z
 ---------------------------------------------------------------------
      1          6           0        1.013382   -0.876486   -1.690966
      2          1           0        1.141068    0.095572   -2.182950
      3          6           0        2.250597   -1.743306   -1.974215
      4          1           0        2.388121   -1.847287   -3.054980
      5          1           0        2.048046   -2.753001   -1.583653
      6          6           0        3.508295   -1.182794   -1.336134
      7          6           0        3.435703   -0.860636    0.161809
      8          6           0        2.129687   -0.047087    0.419772
      9          1           0        2.264621    0.959060    0.000000
     10          1           0        1.990367    0.082531    1.498450
     11          6           0        0.856562   -0.657713   -0.186206
     12          1           0        0.624607   -1.619829    0.294083
     13          1           0        0.000000    0.000000    0.000000
     14          6           0        4.609083   -0.996118   -2.080788
     15          1           0        4.580097   -1.247295   -3.139449
     16          6           0        5.909748   -0.452546   -1.563819
     17          1           0        6.750306   -1.012757   -1.992673
     18          6           0        5.995330   -0.483156   -0.026995
     19          1           0        6.145626   -1.541890    0.226036
     20          6           0        4.664448    0.011583    0.601352
     21          1           0        4.491838    1.013127    0.180722
     22          6           0        4.773325    0.182972    2.136358
     23          1           0        4.789127   -0.797457    2.622762
     24          1           0        3.876312    0.689973    2.510133
     25          6           0        6.013844    0.973914    2.599220
     26          1           0        5.937611    2.012205    2.248002
     27          1           0        6.015715    1.011112    3.695031
     28          6           0        7.316218    0.356267    2.054468
     29          6           0        7.182878    0.333633    0.504125
     30          1           0        6.988608    1.374855    0.214355
     31          6           0        8.597189    0.000000    0.000000
     32          1           0        8.763390    0.366151   -1.016988
     33          1           0        8.760634   -1.085164   -0.017347
     34          6           0        9.529784    0.685841    1.039398
     35          1           0       10.258855   -0.027498    1.436983
     36          1           0       10.110367    1.499265    0.590886
     37          6           0        8.606228    1.241460    2.170476
     38          1           0        8.282437    2.235198    1.831835
     39          6           0        7.523537   -1.058781    2.642518
     40          1           0        6.771561   -1.767670    2.286094
     41          1           0        8.501851   -1.473429    2.386605
     42          1           0        7.449790   -1.039211    3.733740
     43          6           0        9.369128    1.505740    3.500354
     44          1           0       10.234099    2.108760    3.184663
     45          6           0        9.964398    0.277956    4.219317
     46          1           0        9.204100   -0.290937    4.762606
     47          1           0       10.706663    0.608331    4.954901
     48          1           0       10.470331   -0.408926    3.534617
     49          6           0        3.377428   -2.201372    0.944326
     50          1           0        3.127725   -2.037121    1.996714
     51          1           0        2.620237   -2.875168    0.536336
     52          1           0        4.335131   -2.729003    0.898130
     53          8           0        6.092369    0.933509   -1.964947
     54          8           0        6.265139    0.955440   -3.409691
     55          1           0        5.420088    1.344053   -3.690470
     56          8           0       -0.163879   -1.420309   -2.293307
     57          1           0       -0.354118   -2.276531   -1.884821
     58          6           0        8.589329    2.356025    4.533298
     59          1           0        7.717121    1.786500    4.879191
     60          1           0        9.234187    2.471616    5.416643
     61          6           0        8.126509    3.761033    4.100768
     62          1           0        7.428027    3.685103    3.259834
     63          1           0        7.548590    4.184574    4.932067
     64          6           0        9.276295    4.716897    3.741122
     65          1           0        9.805362    4.333856    2.858391
     66          1           0       10.009550    4.708030    4.561224
     67          6           0        8.882720    6.186549    3.458671
     68          1           0        9.818576    6.703904    3.200372
     69          6           0        7.941802    6.325410    2.250381
     70          1           0        6.958053    5.886078    2.452216
     71          1           0        7.782928    7.380354    1.999237
     72          1           0        8.353986    5.829867    1.363557
     73          6           0        8.303976    6.896464    4.693972
     74          1           0        7.331738    6.481193    4.983299
     75          1           0        8.155384    7.963923    4.494664
     76          1           0        8.975667    6.808254    5.556033
 ---------------------------------------------------------------------

 SCF Done:  E(RHF) =  -1273.67538620     A.U. after    9 cycles

 Alpha  occ. eigenvalues --  -20.62351 -20.62025 -20.56071 -11.28474 -11.28242
 Alpha  occ. eigenvalues --  -11.24975 -11.24538 -11.23093 -11.23003 -11.22968
 Alpha  occ. eigenvalues --  -11.22937 -11.22681 -11.22675 -11.22423 -11.22411
 Alpha  occ. eigenvalues --  -11.22311 -11.22261 -11.21932 -11.21859 -11.21584
 Alpha  occ. eigenvalues --  -11.21414 -11.21379 -11.21312 -11.21310 -11.21087
 Alpha  occ. eigenvalues --  -11.20928 -11.20900 -11.20897 -11.20875 -11.20761
 Alpha  occ. eigenvalues --   -1.45657  -1.35449  -1.22093  -1.15599  -1.13899
 Alpha  occ. eigenvalues --   -1.09457  -1.07877  -1.05798  -1.05670  -1.03108
 Alpha  occ. eigenvalues --   -1.01521  -0.99428  -0.97949  -0.96402  -0.92596
 Alpha  occ. eigenvalues --   -0.92424  -0.92274  -0.91569  -0.90589  -0.86240
 Alpha  occ. eigenvalues --   -0.84193  -0.83087  -0.82623  -0.79202  -0.78441
 Alpha  occ. eigenvalues --   -0.76965  -0.74683  -0.73071  -0.71630  -0.70654
 Alpha  occ. eigenvalues --   -0.68980  -0.67097  -0.65174  -0.64675  -0.64375
 Alpha  occ. eigenvalues --   -0.63794  -0.62902  -0.62793  -0.62410  -0.61713
 Alpha  occ. eigenvalues --   -0.61188  -0.59867  -0.59202  -0.58932  -0.58842
 Alpha  occ. eigenvalues --   -0.58013  -0.57652  -0.57232  -0.56118  -0.55986
 Alpha  occ. eigenvalues --   -0.55776  -0.54939  -0.54372  -0.54178  -0.53874
 Alpha  occ. eigenvalues --   -0.53359  -0.53156  -0.53046  -0.52042  -0.51415
 Alpha  occ. eigenvalues --   -0.50961  -0.50535  -0.49950  -0.49674  -0.49077
 Alpha  occ. eigenvalues --   -0.48578  -0.48083  -0.47947  -0.47493  -0.47029
 Alpha  occ. eigenvalues --   -0.46852  -0.46219  -0.45413  -0.45206  -0.44953
 Alpha  occ. eigenvalues --   -0.44371  -0.44339  -0.43312  -0.43241  -0.42855
 Alpha  occ. eigenvalues --   -0.42486  -0.42106  -0.41591  -0.40174  -0.38867
 Alpha  occ. eigenvalues --   -0.34693
 Alpha virt. eigenvalues --    0.16021   0.20112   0.20917   0.21637   0.22219
 Alpha virt. eigenvalues --    0.22647   0.23128   0.23854   0.24295   0.24861
 Alpha virt. eigenvalues --    0.25112   0.26002   0.26549   0.26883   0.27141

 Mulliken charges:
               1
     1  C    0.194093
     2  H    0.172027
     3  C   -0.368797
     4  H    0.192304
     5  H    0.155704
     6  C    0.083650
     7  C   -0.044864
     8  C   -0.325443
     9  H    0.168038
    10  H    0.173689
    11  C   -0.341397
    12  H    0.145131
    13  H    0.184086
    14  C   -0.277753
    15  H    0.193548
    16  C    0.193114
    17  H    0.186783
    18  C   -0.210362
    19  H    0.172003
    20  C   -0.157523
    21  H    0.177943
    22  C   -0.329387
    23  H    0.165761
    24  H    0.165341
    25  C   -0.302081
    26  H    0.156548
    27  H    0.162192
    28  C   -0.022933
    29  C   -0.156453
    30  H    0.187925
    31  C   -0.325379
    32  H    0.188109
    33  H    0.151615
    34  C   -0.328105
    35  H    0.159066
    36  H    0.165993
    37  C   -0.156503
    38  H    0.161896
    39  C   -0.487350
    40  H    0.158275
    41  H    0.167452
    42  H    0.161499
    43  C   -0.147822
    44  H    0.158591
    45  C   -0.481430
    46  H    0.155355
    47  H    0.158048
    48  H    0.160232
    49  C   -0.482485
    50  H    0.168262
    51  H    0.162909
    52  H    0.169503
    53  O   -0.398583
    54  O   -0.464251
    55  H    0.459451
    56  O   -0.758776
    57  H    0.428771
    58  C   -0.302665
    59  H    0.154271
    60  H    0.151822
    61  C   -0.322013
    62  H    0.162706
    63  H    0.158724
    64  C   -0.305409
    65  H    0.156437
    66  H    0.149996
    67  C   -0.145834
    68  H    0.155471
    69  C   -0.477410
    70  H    0.155419
    71  H    0.158508
    72  H    0.158778
    73  C   -0.476150
    74  H    0.155273
    75  H    0.158277
    76  H    0.156567
 Sum of Mulliken charges =   0.00000

 Dipole moment (field-independent basis, Debye):
    X=             -0.9258    Y=             -1.4003    Z=              1.7880  Tot=              2.4525
 Quadrupole moment (field-independent basis, Debye-Ang):
   XX=           -209.8365   YY=           -186.2845   ZZ=           -195.5010
   XY=             -4.5925   XZ=              5.5196   YZ=             -0.1445

 ESP charges:
               1
     1  C    0.529031
     2  H    0.007877
     3  C   -0.214990
     4  H    0.071327
     5  H    0.049923
     6  C    0.036219
     7  C    0.256696
     8  C   -0.080303
     9  H    0.000896
    10  H    0.046647
    11  C   -0.220229
    12  H    0.038771
    13  H    0.060579
    14  C   -0.478709
    15  H    0.162557
    16  C    0.526953
    17  H   -0.004360
    18  C   -0.160797
    19  H   -0.013812
    20  C    0.102635
    21  H   -0.052625
    22  C    0.104915
    23  H   -0.011414
    24  H   -0.026537
    25  C   -0.404794
    26  H    0.085388
    27  H    0.079871
    28  C    0.524058
    29  C    0.236888
    30  H   -0.083209
    31  C   -0.151089
    32  H    0.063982
    33  H   -0.005593
    34  C   -0.071189
    35  H    0.018154
    36  H    0.008761
    37  C   -0.077052
    38  H    0.009581
    39  C   -0.517926
    40  H    0.102641
    41  H    0.113083
    42  H    0.102400
    43  C    0.347517
    44  H   -0.052991
    45  C   -0.353315
    46  H    0.068877
    47  H    0.067744
    48  H    0.071716
    49  C   -0.221107
    50  H    0.030600
    51  H    0.056736
    52  H    0.039122
    53  O   -0.317265
    54  O   -0.451468
    55  H    0.428674
    56  O   -0.751400
    57  H    0.414613
    58  C   -0.290992
    59  H    0.033104
    60  H    0.064350
    61  C    0.194251
    62  H   -0.077469
    63  H   -0.026392
    64  C   -0.100216
    65  H   -0.005837
    66  H   -0.006299
    67  C    0.413576
    68  H   -0.086018
    69  C   -0.283746
    70  H    0.054189
    71  H    0.052958
    72  H    0.051428
    73  C   -0.282124
    74  H    0.050609
    75  H    0.054850
    76  H    0.046519
 Sum of ESP charges =   0.00000

 Normal termination of Gaussian 09 at Fri Apr 28 11:57:30 2017.
