 Gaussian 09, Revision D.01,
 Gaussian 09:  EM64L-G09RevD.01 24-Apr-2013

 ----------------------------------------------------------------------
 #P HF/6-31G* SCF(Conver=6) NoSymm Test Pop=chelpg IOp(6/33=2) GFInput
 GFPrint
 ----------------------------------------------------------------------

 ----------------------------------------------
 MEP - Input generated by R.E.D.-III.x MOLECULE
 ----------------------------------------------
 Symbolic Z-matrix:
 Charge =  0 Multiplicity = 1

                          Input orientation:
 ---------------------------------------------------------------------
 Center     Atomic      Atomic             Coordinates (Angstroms)
 Number     Number       Type             X           Y           Z
 ---------------------------------------------------------------------
      1          8           0        0.000000    0.000000    0.000000
      2          1           0        0.967632    0.000000    0.000000
      3          8           0        1.636041   -2.666944    6.445803
      4          1           0        2.574151   -2.437631    6.505197
      5          6           0       -1.191886    4.123671    1.549138
      6          6           0       -1.285697    2.625146    1.139438
      7          1           0       -2.257679    2.283574    1.536045
      8          6           0       -0.237946    1.700583    1.784735
      9          1           0        0.768681    1.995710    1.453568
     10          6           0       -0.326490    1.814281    3.332520
     11          1           0       -1.308593    1.393782    3.604913
     12          6           0       -2.376315    4.709518    0.704886
     13          1           0       -3.293578    4.374244    1.211388
     14          6           0       -1.359567    4.177295    3.080170
     15          1           0       -2.375008    3.841165    3.335382
     16          1           0       -1.264866    5.198492    3.463035
     17          6           0        0.731114    0.929519    4.080418
     18          6           0       -1.431086    2.659525   -0.390963
     19          1           0       -1.904590    1.756927   -0.784136
     20          1           0       -0.448920    2.719827   -0.871554
     21          6           0       -0.329159    3.287461    3.801441
     22          1           0        0.666673    3.722024    3.662731
     23          1           0       -0.528900    3.329493    4.877916
     24          6           0       -2.265937    3.942583   -0.653278
     25          1           0       -1.779845    4.572466   -1.407832
     26          1           0       -3.258671    3.703569   -1.048271
     27          6           0       -0.442835    0.235866    1.351407
     28          1           0       -1.521023    0.026663    1.303913
     29          6           0       -2.491235    6.242460    0.513210
     30          1           0       -1.577733    6.576952    0.000000
     31          6           0        0.146229    4.769768    1.123506
     32          1           0        1.011833    4.246098    1.537658
     33          1           0        0.266964    4.781920    0.036270
     34          1           0        0.201471    5.807282    1.469991
     35          6           0        0.767964   -0.472450    3.462252
     36          6           0        0.299960    0.791895    5.574226
     37          1           0       -0.769719    0.542187    5.601135
     38          1           0        0.405332    1.760131    6.074821
     39          6           0        0.211960   -0.753196    2.274577
     40          1           0        0.238771   -1.775247    1.896725
     41          6           0        2.153636    1.546309    4.006147
     42          1           0        2.218762    2.470097    4.589193
     43          1           0        2.909372    0.862343    4.401059
     44          1           0        2.433644    1.773783    2.973012
     45          6           0        1.460646   -1.562710    4.258051
     46          1           0        1.330959   -2.531634    3.766032
     47          1           0        2.544792   -1.367335    4.290920
     48          6           0        1.063760   -0.273971    6.375130
     49          1           0        2.125171    0.000668    6.467096
     50          1           0        0.665963   -0.332063    7.394654
     51          6           0       -3.660760    6.628597   -0.431851
     52          1           0       -3.611315    7.715232   -0.592410
     53          1           0       -3.496870    6.175303   -1.417379
     54          6           0        0.960432   -1.645121    5.707856
     55          1           0       -0.088520   -1.965654    5.704919
     56          6           0       -2.587719    7.031103    1.832943
     57          1           0       -3.376584    6.641520    2.486108
     58          1           0       -2.813866    8.085233    1.632837
     59          1           0       -1.651671    7.002735    2.396511
     60          6           0       -5.079148    6.271701    0.043820
     61          1           0       -5.161171    5.186185    0.177912
     62          1           0       -5.262345    6.720410    1.027600
     63          6           0       -6.152699    6.749471   -0.947979
     64          1           0       -5.943407    6.306394   -1.932494
     65          1           0       -6.050381    7.836616   -1.078611
     66          6           0       -7.623058    6.441511   -0.580418
     67          1           0       -8.231016    6.857286   -1.397629
     68          6           0       -8.069689    7.140707    0.714347
     69          1           0       -7.553075    6.735200    1.591957
     70          1           0       -9.145126    7.007309    0.878440
     71          1           0       -7.868871    8.217903    0.676079
     72          6           0       -7.916856    4.933177   -0.522899
     73          1           0       -7.394165    4.450619    0.311051
     74          1           0       -8.988686    4.749722   -0.385752
     75          1           0       -7.607768    4.430729   -1.447058
 ---------------------------------------------------------------------

 SCF Done:  E(RHF) =  -1198.92703891     A.U. after    9 cycles

 Alpha  occ. eigenvalues --  -20.55898 -20.55568 -11.28022 -11.27886 -11.24886
 Alpha  occ. eigenvalues --  -11.24092 -11.23194 -11.22921 -11.22898 -11.22714
 Alpha  occ. eigenvalues --  -11.22572 -11.22520 -11.22430 -11.22267 -11.22265
 Alpha  occ. eigenvalues --  -11.22246 -11.21974 -11.21816 -11.21665 -11.21577
 Alpha  occ. eigenvalues --  -11.21406 -11.21306 -11.21234 -11.21034 -11.20958
 Alpha  occ. eigenvalues --  -11.20955 -11.20942 -11.20897 -11.20456  -1.35270
 Alpha  occ. eigenvalues --   -1.34758  -1.16063  -1.13872  -1.09563  -1.08035
 Alpha  occ. eigenvalues --   -1.05918  -1.05671  -1.03053  -1.01653  -0.99473
 Alpha  occ. eigenvalues --   -0.97889  -0.96256  -0.92855  -0.92311  -0.92256
 Alpha  occ. eigenvalues --   -0.90868  -0.90610  -0.86181  -0.84458  -0.83023
 Alpha  occ. eigenvalues --   -0.82803  -0.79049  -0.78437  -0.76922  -0.74603
 Alpha  occ. eigenvalues --   -0.73537  -0.71642  -0.69957  -0.67273  -0.66490
 Alpha  occ. eigenvalues --   -0.64537  -0.63941  -0.63919  -0.63292  -0.62654
 Alpha  occ. eigenvalues --   -0.62076  -0.61127  -0.60958  -0.60625  -0.59113
 Alpha  occ. eigenvalues --   -0.58754  -0.58470  -0.57684  -0.57196  -0.56451
 Alpha  occ. eigenvalues --   -0.56085  -0.55490  -0.55465  -0.54554  -0.54475
 Alpha  occ. eigenvalues --   -0.54158  -0.53448  -0.53291  -0.52762  -0.52715
 Alpha  occ. eigenvalues --   -0.52256  -0.51706  -0.51406  -0.50888  -0.50222
 Alpha  occ. eigenvalues --   -0.48591  -0.48430  -0.48224  -0.47838  -0.47291
 Alpha  occ. eigenvalues --   -0.46952  -0.46719  -0.46255  -0.45892  -0.45205
 Alpha  occ. eigenvalues --   -0.44993  -0.44776  -0.44484  -0.43482  -0.43425
 Alpha  occ. eigenvalues --   -0.42882  -0.42555  -0.42313  -0.41567  -0.40360
 Alpha  occ. eigenvalues --   -0.38516  -0.34011
 Alpha virt. eigenvalues --    0.16207   0.20734   0.21076   0.22092   0.22236
 Alpha virt. eigenvalues --    0.22857   0.24074   0.24275   0.24800   0.25472
 Alpha virt. eigenvalues --    0.25756   0.26309   0.26619   0.27129   0.27479

 Mulliken charges:
               1
     1  O   -0.763719
     2  H    0.429026
     3  O   -0.758990
     4  H    0.428107
     5  C   -0.028211
     6  C   -0.167282
     7  H    0.149799
     8  C   -0.167239
     9  H    0.154345
    10  C   -0.167026
    11  H    0.159292
    12  C   -0.141362
    13  H    0.155811
    14  C   -0.297792
    15  H    0.152030
    16  H    0.164713
    17  C   -0.040621
    18  C   -0.298041
    19  H    0.182471
    20  H    0.159992
    21  C   -0.327687
    22  H    0.163760
    23  H    0.166899
    24  C   -0.339507
    25  H    0.159063
    26  H    0.165538
    27  C    0.184437
    28  H    0.176637
    29  C   -0.147171
    30  H    0.156548
    31  C   -0.488375
    32  H    0.159762
    33  H    0.167630
    34  H    0.162122
    35  C    0.074456
    36  C   -0.326047
    37  H    0.166479
    38  H    0.172998
    39  C   -0.290776
    40  H    0.193973
    41  C   -0.477616
    42  H    0.167227
    43  H    0.162533
    44  H    0.164664
    45  C   -0.365959
    46  H    0.193897
    47  H    0.152400
    48  C   -0.340796
    49  H    0.144064
    50  H    0.183654
    51  C   -0.309166
    52  H    0.152019
    53  H    0.161995
    54  C    0.193740
    55  H    0.174229
    56  C   -0.486150
    57  H    0.156720
    58  H    0.157583
    59  H    0.160583
    60  C   -0.321503
    61  H    0.159676
    62  H    0.160050
    63  C   -0.300157
    64  H    0.151655
    65  H    0.150930
    66  C   -0.146083
    67  H    0.155288
    68  C   -0.476052
    69  H    0.155321
    70  H    0.158131
    71  H    0.156638
    72  C   -0.476219
    73  H    0.155053
    74  H    0.158267
    75  H    0.157342
 Sum of Mulliken charges =   0.00000

 Dipole moment (field-independent basis, Debye):
    X=              1.7140    Y=              1.9583    Z=              0.8546  Tot=              2.7392
 Quadrupole moment (field-independent basis, Debye-Ang):
   XX=           -178.5323   YY=           -192.5441   ZZ=           -190.8308
   XY=              0.3429   XZ=              4.6161   YZ=             11.7772

 ESP charges:
               1
     1  O   -0.764180
     2  H    0.415868
     3  O   -0.743160
     4  H    0.409372
     5  C    0.525938
     6  C    0.200443
     7  H   -0.072224
     8  C   -0.149517
     9  H    0.000595
    10  C   -0.051406
    11  H   -0.046804
    12  C   -0.066908
    13  H   -0.053404
    14  C   -0.184303
    15  H    0.004210
    16  H    0.008572
    17  C    0.292837
    18  C   -0.270266
    19  H    0.074874
    20  H    0.031464
    21  C    0.144696
    22  H   -0.036717
    23  H   -0.037666
    24  C    0.077146
    25  H   -0.008378
    26  H   -0.013150
    27  C    0.700358
    28  H   -0.032881
    29  C    0.207575
    30  H   -0.033409
    31  C   -0.499342
    32  H    0.098051
    33  H    0.096674
    34  H    0.090353
    35  C    0.007182
    36  C   -0.067402
    37  H    0.001082
    38  H    0.041274
    39  C   -0.567666
    40  H    0.190343
    41  C   -0.190189
    42  H    0.025756
    43  H    0.043345
    44  H    0.030027
    45  C   -0.148664
    46  H    0.055034
    47  H    0.035788
    48  C   -0.191883
    49  H    0.028817
    50  H    0.051613
    51  C   -0.112746
    52  H    0.015312
    53  H   -0.011464
    54  C    0.500791
    55  H    0.005369
    56  C   -0.350617
    57  H    0.063074
    58  H    0.079905
    59  H    0.076833
    60  C    0.227281
    61  H   -0.028647
    62  H   -0.039257
    63  C   -0.202611
    64  H    0.021214
    65  H    0.017091
    66  C    0.404533
    67  H   -0.073540
    68  C   -0.260876
    69  H    0.045159
    70  H    0.049526
    71  H    0.045658
    72  C   -0.308614
    73  H    0.054317
    74  H    0.062557
    75  H    0.059986
 Sum of ESP charges =   0.00000

 Normal termination of Gaussian 09 at Wed May 17 12:39:05 2017.
