 Gaussian 09, Revision D.01,
 Gaussian 09:  EM64L-G09RevD.01 24-Apr-2013

 ----------------------------------------------------------------------
 #P HF/6-31G* SCF(Conver=6) NoSymm Test Pop=chelpg IOp(6/33=2) GFInput
 GFPrint
 ----------------------------------------------------------------------

 ----------------------------------------------
 MEP - Input generated by R.E.D.-III.x MOLECULE
 ----------------------------------------------
 Symbolic Z-matrix:
 Charge =  0 Multiplicity = 1

                          Input orientation:
 ---------------------------------------------------------------------
 Center     Atomic      Atomic             Coordinates (Angstroms)
 Number     Number       Type             X           Y           Z
 ---------------------------------------------------------------------
      1          8           0        0.000000    0.000000    0.000000
      2          1           0       -0.229533    0.137517    0.929902
      3          8           0       -3.051763    6.481793    0.000000
      4          1           0       -3.051257    6.682912    0.946420
      5          6           0        4.272081    1.551174   -0.417275
      6          6           0        2.842236    1.066001   -0.795889
      7          1           0        2.736252    1.304069   -1.868737
      8          6           0        1.688450    1.809310   -0.098878
      9          1           0        1.740974    1.636646    0.986191
     10          6           0        1.802463    3.332662   -0.384975
     11          1           0        1.625416    3.445518   -1.467295
     12          6           0        5.134991    0.577982   -1.295037
     13          1           0        5.044289    0.943218   -2.330632
     14          6           0        4.345473    3.045634   -0.788855
     15          1           0        4.256216    3.141061   -1.880737
     16          1           0        5.309870    3.485677   -0.516872
     17          6           0        0.683736    4.180921    0.314391
     18          6           0        2.927531   -0.464994   -0.698730
     19          1           0        2.156325   -0.964978   -1.289098
     20          1           0        2.779644   -0.795159    0.334935
     21          6           0        3.228743    3.861599   -0.110594
     22          1           0        3.415177    3.880711    0.968661
     23          1           0        3.306115    4.901157   -0.448005
     24          6           0        4.364096   -0.782258   -1.193174
     25          1           0        4.875257   -1.460481   -0.499186
     26          1           0        4.343118   -1.291920   -2.161281
     27          6           0        0.318825    1.284348   -0.571934
     28          1           0        0.371056    1.074758   -1.649806
     29          6           0        6.652049    0.428327   -1.008135
     30          1           0        6.761351    0.000000    0.000000
     31          6           0        4.584644    1.342117    1.082482
     32          1           0        3.861429    1.842127    1.732059
     33          1           0        4.584310    0.282816    1.355672
     34          1           0        5.572617    1.742519    1.332277
     35          6           0       -0.679757    3.509989    0.115770
     36          6           0        0.634342    5.590259   -0.354746
     37          1           0        0.642932    5.453065   -1.444871
     38          1           0        1.544913    6.144852   -0.104648
     39          6           0       -0.807408    2.244374   -0.309004
     40          1           0       -1.802421    1.827551   -0.464814
     41          6           0        0.947192    4.338122    1.836029
     42          1           0        1.820386    4.969599    2.026744
     43          1           0        0.097968    4.800971    2.345397
     44          1           0        1.117439    3.367210    2.311305
     45          6           0       -1.912035    4.344360    0.410994
     46          1           0       -2.817107    3.794718    0.134501
     47          1           0       -1.978590    4.538935    1.493775
     48          6           0       -0.590640    6.441378    0.014045
     49          1           0       -0.574983    6.695152    1.084442
     50          1           0       -0.565106    7.390547   -0.533186
     51          6           0        7.292667   -0.574296   -2.002552
     52          1           0        6.628055   -1.434703   -2.124819
     53          1           0        7.356077   -0.096089   -2.992581
     54          6           0       -1.890989    5.703695   -0.303725
     55          1           0       -1.955185    5.537851   -1.386055
     56          6           0        7.411923    1.766677   -1.043264
     57          1           0        7.235379    2.290775   -1.990913
     58          1           0        8.491034    1.613299   -0.947426
     59          1           0        7.113639    2.434829   -0.232131
     60          6           0        8.683434   -1.090025   -1.597524
     61          1           0        9.362759   -0.244923   -1.433299
     62          1           0        8.607356   -1.603173   -0.629190
     63          6           0        9.343779   -2.018594   -2.634110
     64          1           0       10.365239   -2.249176   -2.296551
     65          1           0        9.455616   -1.463525   -3.576837
     66          6           0        8.627665   -3.352333   -2.936805
     67          1           0        7.612749   -3.126906   -3.294046
     68          6           0        8.502348   -4.246406   -1.693041
     69          1           0        9.492694   -4.482610   -1.282190
     70          1           0        8.011181   -5.194365   -1.940453
     71          1           0        7.917481   -3.770775   -0.899125
     72          6           0        9.355918   -4.099169   -4.065904
     73          1           0       10.379742   -4.358347   -3.766647
     74          1           0        8.839929   -5.030812   -4.324776
     75          1           0        9.419631   -3.487626   -4.973328
 ---------------------------------------------------------------------

 SCF Done:  E(RHF) =  -1198.92716276     A.U. after    9 cycles

 Alpha  occ. eigenvalues --  -20.55904 -20.55578 -11.28028 -11.27898 -11.24890
 Alpha  occ. eigenvalues --  -11.24101 -11.23191 -11.22928 -11.22904 -11.22759
 Alpha  occ. eigenvalues --  -11.22576 -11.22527 -11.22317 -11.22308 -11.22274
 Alpha  occ. eigenvalues --  -11.22254 -11.21973 -11.21954 -11.21681 -11.21573
 Alpha  occ. eigenvalues --  -11.21479 -11.21421 -11.21219 -11.21041 -11.21002
 Alpha  occ. eigenvalues --  -11.20941 -11.20935 -11.20848 -11.20452  -1.35276
 Alpha  occ. eigenvalues --   -1.34767  -1.16069  -1.13870  -1.09642  -1.08088
 Alpha  occ. eigenvalues --   -1.05922  -1.05702  -1.03066  -1.01701  -0.99514
 Alpha  occ. eigenvalues --   -0.97933  -0.96248  -0.92868  -0.92319  -0.92279
 Alpha  occ. eigenvalues --   -0.90955  -0.90593  -0.86188  -0.83993  -0.82821
 Alpha  occ. eigenvalues --   -0.82433  -0.79203  -0.78537  -0.77035  -0.74827
 Alpha  occ. eigenvalues --   -0.74195  -0.72056  -0.69943  -0.67258  -0.66438
 Alpha  occ. eigenvalues --   -0.64558  -0.64011  -0.63895  -0.63260  -0.63113
 Alpha  occ. eigenvalues --   -0.62055  -0.61080  -0.60701  -0.60313  -0.59060
 Alpha  occ. eigenvalues --   -0.58718  -0.57999  -0.57579  -0.57112  -0.56369
 Alpha  occ. eigenvalues --   -0.56050  -0.55933  -0.55346  -0.54708  -0.54389
 Alpha  occ. eigenvalues --   -0.54137  -0.53740  -0.53066  -0.52982  -0.52948
 Alpha  occ. eigenvalues --   -0.52438  -0.52173  -0.51085  -0.50592  -0.49680
 Alpha  occ. eigenvalues --   -0.48741  -0.48434  -0.48158  -0.47883  -0.47305
 Alpha  occ. eigenvalues --   -0.46840  -0.46600  -0.46191  -0.46079  -0.45358
 Alpha  occ. eigenvalues --   -0.45036  -0.44730  -0.44335  -0.43828  -0.43409
 Alpha  occ. eigenvalues --   -0.43335  -0.42519  -0.42353  -0.41580  -0.40383
 Alpha  occ. eigenvalues --   -0.38463  -0.34020
 Alpha virt. eigenvalues --    0.16202   0.20861   0.21215   0.21934   0.22350
 Alpha virt. eigenvalues --    0.23038   0.24103   0.24602   0.24865   0.25689
 Alpha virt. eigenvalues --    0.25862   0.26150   0.26774   0.26883   0.27493

 Mulliken charges:
               1
     1  O   -0.763802
     2  H    0.429073
     3  O   -0.758975
     4  H    0.428114
     5  C   -0.029787
     6  C   -0.167457
     7  H    0.150163
     8  C   -0.167367
     9  H    0.154331
    10  C   -0.166963
    11  H    0.159332
    12  C   -0.135686
    13  H    0.151768
    14  C   -0.297835
    15  H    0.152249
    16  H    0.165078
    17  C   -0.040545
    18  C   -0.298038
    19  H    0.183585
    20  H    0.159363
    21  C   -0.327620
    22  H    0.163743
    23  H    0.166844
    24  C   -0.340790
    25  H    0.157911
    26  H    0.165988
    27  C    0.184351
    28  H    0.176662
    29  C   -0.147122
    30  H    0.152403
    31  C   -0.487769
    32  H    0.159517
    33  H    0.167497
    34  H    0.162674
    35  C    0.074513
    36  C   -0.326020
    37  H    0.166487
    38  H    0.172987
    39  C   -0.290754
    40  H    0.193988
    41  C   -0.477822
    42  H    0.167281
    43  H    0.162556
    44  H    0.164648
    45  C   -0.365998
    46  H    0.193900
    47  H    0.152396
    48  C   -0.340774
    49  H    0.144117
    50  H    0.183661
    51  C   -0.315027
    52  H    0.173304
    53  H    0.146907
    54  C    0.193747
    55  H    0.174228
    56  C   -0.485283
    57  H    0.153296
    58  H    0.163076
    59  H    0.160744
    60  C   -0.313042
    61  H    0.157880
    62  H    0.153715
    63  C   -0.296981
    64  H    0.150544
    65  H    0.151727
    66  C   -0.153139
    67  H    0.156746
    68  C   -0.476274
    69  H    0.151728
    70  H    0.158689
    71  H    0.161148
    72  C   -0.471601
    73  H    0.151981
    74  H    0.158269
    75  H    0.157561
 Sum of Mulliken charges =   0.00000

 Dipole moment (field-independent basis, Debye):
    X=              1.3756    Y=              1.2897    Z=              1.9487  Tot=              2.7117
 Quadrupole moment (field-independent basis, Debye-Ang):
   XX=           -193.9292   YY=           -188.8771   ZZ=           -181.3387
   XY=             11.2890   XZ=             -4.0364   YZ=              7.8636

 ESP charges:
               1
     1  O   -0.760004
     2  H    0.414939
     3  O   -0.740696
     4  H    0.408973
     5  C    0.648773
     6  C    0.091411
     7  H   -0.051265
     8  C   -0.127391
     9  H    0.008962
    10  C   -0.096131
    11  H   -0.037969
    12  C   -0.169358
    13  H   -0.011419
    14  C   -0.255386
    15  H    0.019140
    16  H    0.023312
    17  C    0.365926
    18  C   -0.155125
    19  H    0.059785
    20  H    0.012304
    21  C    0.177582
    22  H   -0.042665
    23  H   -0.037186
    24  C   -0.042531
    25  H    0.015524
    26  H    0.024150
    27  C    0.664005
    28  H   -0.018941
    29  C    0.201902
    30  H   -0.030757
    31  C   -0.569273
    32  H    0.112751
    33  H    0.121229
    34  H    0.104740
    35  C   -0.029439
    36  C   -0.122383
    37  H    0.010543
    38  H    0.045414
    39  C   -0.547787
    40  H    0.189616
    41  C   -0.168450
    42  H    0.016027
    43  H    0.038348
    44  H    0.016586
    45  C   -0.117890
    46  H    0.048769
    47  H    0.028173
    48  C   -0.145046
    49  H    0.015385
    50  H    0.044792
    51  C    0.055966
    52  H   -0.025683
    53  H   -0.012075
    54  C    0.476268
    55  H    0.006846
    56  C   -0.350547
    57  H    0.069952
    58  H    0.075045
    59  H    0.075311
    60  C   -0.017191
    61  H    0.014780
    62  H   -0.013093
    63  C   -0.123632
    64  H    0.013988
    65  H    0.008930
    66  C    0.462661
    67  H   -0.088642
    68  C   -0.273651
    69  H    0.051468
    70  H    0.044719
    71  H    0.052553
    72  C   -0.381383
    73  H    0.073664
    74  H    0.082186
    75  H    0.069595
 Sum of ESP charges =   0.00000

 Normal termination of Gaussian 09 at Wed May 17 11:37:58 2017.
