 Gaussian 09, Revision D.01,
 Gaussian 09:  EM64L-G09RevD.01 24-Apr-2013

 ----------------------------------------------------------------------
 #P HF/6-31G* SCF(Conver=6) NoSymm Test Pop=chelpg IOp(6/33=2) GFInput
 GFPrint
 ----------------------------------------------------------------------

 ----------------------------------------------
 MEP - Input generated by R.E.D.-III.x MOLECULE
 ----------------------------------------------
 Symbolic Z-matrix:
 Charge =  0 Multiplicity = 1

                          Input orientation:
 ---------------------------------------------------------------------
 Center     Atomic      Atomic             Coordinates (Angstroms)
 Number     Number       Type             X           Y           Z
 ---------------------------------------------------------------------
      1          8           0        6.703011    0.900620    0.000000
      2          1           0        7.056844    0.000000    0.000000
      3          8           0        9.857142    0.374097   -6.411504
      4          1           0        9.989093   -0.582628   -6.470064
      5          6           0        2.445087    0.511378   -1.597973
      6          6           0        3.802277    1.144776   -1.173315
      7          1           0        3.769939    2.175553   -1.567489
      8          6           0        5.053191    0.507930   -1.804999
      9          1           0        5.141675   -0.537531   -1.474602
     10          6           0        4.933421    0.551186   -3.353937
     11          1           0        4.967314    1.619446   -3.624501
     12          6           0        1.454630    1.399225   -0.765540
     13          1           0        1.415725    2.372633   -1.280315
     14          6           0        2.354132    0.648218   -3.130971
     15          1           0        2.300306    1.716602   -3.385745
     16          1           0        1.443518    0.188754   -3.527704
     17          6           0        6.152601   -0.107004   -4.089246
     18          6           0        3.699857    1.263208    0.355055
     19          1           0        4.375986    2.018560    0.762013
     20          1           0        3.976551    0.318477    0.834977
     21          6           0        3.567238    0.013885   -3.837655
     22          1           0        3.525745   -1.071797   -3.697908
     23          1           0        3.466981    0.182893   -4.915541
     24          6           0        2.204409    1.601803    0.595147
     25          1           0        1.776358    0.951533    1.367703
     26          1           0        2.084799    2.627626    0.956889
     27          6           0        6.336680    1.232372   -1.354261
     28          1           0        6.136803    2.312200   -1.304376
     29          6           0       -0.014453    0.939859   -0.573145
     30          1           0        0.000000    0.000000    0.000000
     31          6           0        2.328309   -0.969796   -1.170616
     32          1           0        3.138607   -1.584041   -1.572014
     33          1           0        2.346509   -1.083115   -0.082690
     34          1           0        1.388278   -1.403242   -1.527606
     35          6           0        7.463262    0.371104   -3.454964
     36          6           0        6.139715    0.348074   -5.582302
     37          1           0        5.980952    1.434979   -5.608483
     38          1           0        5.282811   -0.103096   -6.093625
     39          6           0        7.507144    0.988288   -2.265145
     40          1           0        8.463554    1.336864   -1.875465
     41          6           0        6.099111   -1.656735   -4.019263
     42          1           0        5.269998   -2.054293   -4.612630
     43          1           0        7.016795   -2.108272   -4.405065
     44          1           0        5.978490   -2.003177   -2.988267
     45          6           0        8.740550    0.128144   -4.236883
     46          1           0        9.588764    0.603044   -3.734163
     47          1           0        8.956687   -0.952081   -4.269485
     48          6           0        7.420271    0.029301   -6.369405
     49          1           0        7.554586   -1.058722   -6.461829
     50          1           0        7.340214    0.422667   -7.389154
     51          6           0       -0.790744    1.978133    0.275464
     52          1           0       -0.203088    2.228625    1.166334
     53          1           0       -0.873158    2.908138   -0.305674
     54          6           0        8.650430    0.626655   -5.686831
     55          1           0        8.564072    1.720085   -5.682736
     56          6           0       -0.751663    0.676023   -1.897997
     57          1           0       -0.728299    1.563467   -2.543215
     58          1           0       -1.801110    0.421388   -1.722770
     59          1           0       -0.313242   -0.153470   -2.457025
     60          6           0       -2.183615    1.526967    0.747412
     61          1           0       -2.861220    1.409286   -0.106009
     62          1           0       -2.093669    0.528466    1.198520
     63          6           0       -2.828155    2.461033    1.788429
     64          1           0       -2.172857    2.506443    2.670323
     65          1           0       -3.769167    2.007003    2.133121
     66          6           0       -3.129576    3.904541    1.331961
     67          1           0       -2.186690    4.365825    1.004875
     68          6           0       -3.662128    4.733296    2.511907
     69          1           0       -4.610345    4.322391    2.882004
     70          1           0       -3.843345    5.773636    2.218453
     71          1           0       -2.953542    4.739182    3.348133
     72          6           0       -4.112900    3.953726    0.151744
     73          1           0       -5.066861    3.480967    0.419731
     74          1           0       -4.325777    4.989309   -0.137081
     75          1           0       -3.723230    3.439348   -0.732713
 ---------------------------------------------------------------------

 SCF Done:  E(RHF) =  -1198.92754035     A.U. after    9 cycles

 Alpha  occ. eigenvalues --  -20.55903 -20.55575 -11.28028 -11.27895 -11.24888
 Alpha  occ. eigenvalues --  -11.24099 -11.23190 -11.22928 -11.22903 -11.22759
 Alpha  occ. eigenvalues --  -11.22574 -11.22524 -11.22323 -11.22310 -11.22273
 Alpha  occ. eigenvalues --  -11.22253 -11.21976 -11.21941 -11.21676 -11.21581
 Alpha  occ. eigenvalues --  -11.21480 -11.21424 -11.21246 -11.21039 -11.20973
 Alpha  occ. eigenvalues --  -11.20970 -11.20948 -11.20854 -11.20438  -1.35276
 Alpha  occ. eigenvalues --   -1.34764  -1.16066  -1.13866  -1.09669  -1.08096
 Alpha  occ. eigenvalues --   -1.05924  -1.05704  -1.03063  -1.01699  -0.99516
 Alpha  occ. eigenvalues --   -0.97932  -0.96245  -0.92872  -0.92327  -0.92292
 Alpha  occ. eigenvalues --   -0.90938  -0.90584  -0.86187  -0.84026  -0.82816
 Alpha  occ. eigenvalues --   -0.82469  -0.79176  -0.78541  -0.77033  -0.74941
 Alpha  occ. eigenvalues --   -0.73977  -0.72083  -0.69942  -0.67254  -0.66473
 Alpha  occ. eigenvalues --   -0.64818  -0.64092  -0.63949  -0.63459  -0.62469
 Alpha  occ. eigenvalues --   -0.61561  -0.61309  -0.60760  -0.60418  -0.59193
 Alpha  occ. eigenvalues --   -0.58733  -0.58144  -0.57675  -0.56905  -0.56336
 Alpha  occ. eigenvalues --   -0.56183  -0.55854  -0.55264  -0.54823  -0.54288
 Alpha  occ. eigenvalues --   -0.54106  -0.53851  -0.53166  -0.53014  -0.52887
 Alpha  occ. eigenvalues --   -0.52483  -0.52157  -0.51006  -0.50177  -0.49819
 Alpha  occ. eigenvalues --   -0.49107  -0.48424  -0.48106  -0.47762  -0.47398
 Alpha  occ. eigenvalues --   -0.47002  -0.46673  -0.46165  -0.45900  -0.45446
 Alpha  occ. eigenvalues --   -0.45068  -0.44726  -0.44374  -0.43506  -0.43407
 Alpha  occ. eigenvalues --   -0.43271  -0.42540  -0.42507  -0.41612  -0.40383
 Alpha  occ. eigenvalues --   -0.38462  -0.34019
 Alpha virt. eigenvalues --    0.16202   0.20909   0.21250   0.22057   0.22319
 Alpha virt. eigenvalues --    0.22958   0.24132   0.24615   0.24926   0.25752
 Alpha virt. eigenvalues --    0.25882   0.26152   0.26866   0.26955   0.27542

 Mulliken charges:
               1
     1  O   -0.763764
     2  H    0.429046
     3  O   -0.758979
     4  H    0.428112
     5  C   -0.029835
     6  C   -0.167672
     7  H    0.150103
     8  C   -0.167141
     9  H    0.154383
    10  C   -0.166979
    11  H    0.159325
    12  C   -0.135429
    13  H    0.151480
    14  C   -0.297967
    15  H    0.152344
    16  H    0.164800
    17  C   -0.040689
    18  C   -0.298299
    19  H    0.183430
    20  H    0.159318
    21  C   -0.327540
    22  H    0.163650
    23  H    0.166890
    24  C   -0.339927
    25  H    0.158300
    26  H    0.166391
    27  C    0.184175
    28  H    0.176688
    29  C   -0.148797
    30  H    0.152182
    31  C   -0.487518
    32  H    0.159444
    33  H    0.167589
    34  H    0.162593
    35  C    0.074515
    36  C   -0.326078
    37  H    0.166485
    38  H    0.172978
    39  C   -0.290643
    40  H    0.193976
    41  C   -0.477565
    42  H    0.167261
    43  H    0.162528
    44  H    0.164602
    45  C   -0.366023
    46  H    0.193903
    47  H    0.152397
    48  C   -0.340752
    49  H    0.144102
    50  H    0.183663
    51  C   -0.311889
    52  H    0.166443
    53  H    0.150899
    54  C    0.193749
    55  H    0.174225
    56  C   -0.485711
    57  H    0.152189
    58  H    0.164456
    59  H    0.161151
    60  C   -0.312925
    61  H    0.158328
    62  H    0.154146
    63  C   -0.298419
    64  H    0.151864
    65  H    0.150471
    66  C   -0.151851
    67  H    0.157303
    68  C   -0.471920
    69  H    0.152047
    70  H    0.157911
    71  H    0.157982
    72  C   -0.476750
    73  H    0.151792
    74  H    0.158178
    75  H    0.161271
 Sum of Mulliken charges =   0.00000

 Dipole moment (field-independent basis, Debye):
    X=             -1.0588    Y=             -2.3110    Z=             -0.9455  Tot=              2.7121
 Quadrupole moment (field-independent basis, Debye-Ang):
   XX=           -207.7339   YY=           -184.1996   ZZ=           -190.9094
   XY=            -20.4194   XZ=              3.9003   YZ=              6.9477

 ESP charges:
               1
     1  O   -0.753139
     2  H    0.415924
     3  O   -0.741817
     4  H    0.407108
     5  C    0.702016
     6  C    0.063830
     7  H   -0.042070
     8  C   -0.124317
     9  H    0.016937
    10  C   -0.179391
    11  H   -0.014062
    12  C   -0.178120
    13  H   -0.020101
    14  C   -0.244198
    15  H    0.016379
    16  H    0.011747
    17  C    0.411289
    18  C   -0.212217
    19  H    0.073731
    20  H    0.021405
    21  C    0.164094
    22  H   -0.038876
    23  H   -0.025013
    24  C    0.045555
    25  H   -0.001891
    26  H   -0.002878
    27  C    0.639827
    28  H   -0.009795
    29  C    0.167536
    30  H   -0.031031
    31  C   -0.519160
    32  H    0.099269
    33  H    0.102546
    34  H    0.087411
    35  C   -0.047255
    36  C   -0.117530
    37  H    0.009559
    38  H    0.041550
    39  C   -0.527956
    40  H    0.185544
    41  C   -0.218059
    42  H    0.029324
    43  H    0.047640
    44  H    0.033209
    45  C   -0.090945
    46  H    0.040407
    47  H    0.019086
    48  C   -0.143400
    49  H    0.013610
    50  H    0.042939
    51  C    0.068026
    52  H   -0.032292
    53  H   -0.003945
    54  C    0.485157
    55  H   -0.000455
    56  C   -0.302486
    57  H    0.055627
    58  H    0.057700
    59  H    0.068532
    60  C   -0.008237
    61  H    0.011333
    62  H   -0.000895
    63  C   -0.166801
    64  H    0.027857
    65  H    0.020732
    66  C    0.491747
    67  H   -0.099608
    68  C   -0.385647
    69  H    0.074395
    70  H    0.082350
    71  H    0.069090
    72  C   -0.305029
    73  H    0.057794
    74  H    0.054596
    75  H    0.054206
 Sum of ESP charges =   0.00000

 Normal termination of Gaussian 09 at Wed May 17 11:39:54 2017.
