 Gaussian 09, Revision D.01,
 Gaussian 09:  EM64L-G09RevD.01 24-Apr-2013

 ----------------------------------------------------------------------
 #P HF/6-31G* SCF(Conver=6) NoSymm Test Pop=chelpg IOp(6/33=2) GFInput
 GFPrint
 ----------------------------------------------------------------------

 ----------------------------------------------
 MEP - Input generated by R.E.D.-III.x MOLECULE
 ----------------------------------------------
 Symbolic Z-matrix:
 Charge =  0 Multiplicity = 1

                          Input orientation:
 ---------------------------------------------------------------------
 Center     Atomic      Atomic             Coordinates (Angstroms)
 Number     Number       Type             X           Y           Z
 ---------------------------------------------------------------------
      1          8           0        0.000000    0.000000    0.000000
      2          1           0        0.967622    0.000000    0.000000
      3          8           0        1.649439   -2.655202    6.446657
      4          1           0        2.586567   -2.421869    6.505890
      5          6           0       -1.205427    4.121616    1.546645
      6          6           0       -1.293060    2.622539    1.136993
      7          1           0       -2.264256    2.277447    1.532366
      8          6           0       -0.242595    1.701789    1.783314
      9          1           0        0.763108    1.999752    1.452031
     10          6           0       -0.331584    1.816083    3.331002
     11          1           0       -1.312068    1.391929    3.603627
     12          6           0       -2.391695    4.701598    0.700268
     13          1           0       -3.307586    4.355776    1.202727
     14          6           0       -1.373797    4.174908    3.077696
     15          1           0       -2.387839    3.834329    3.332734
     16          1           0       -1.283244    5.196419    3.460461
     17          6           0        0.729424    0.936016    4.079527
     18          6           0       -1.435698    2.655937   -0.393743
     19          1           0       -1.909543    1.753438   -0.786768
     20          1           0       -0.452565    2.714464   -0.872475
     21          6           0       -0.339828    3.289442    3.798981
     22          1           0        0.654132    3.727948    3.659488
     23          1           0       -0.539150    3.331415    4.875543
     24          6           0       -2.268696    3.939580   -0.659344
     25          1           0       -1.774367    4.572474   -1.405967
     26          1           0       -3.256892    3.702804   -1.066366
     27          6           0       -0.442891    0.235943    1.351368
     28          1           0       -1.520414    0.023191    1.304726
     29          6           0       -2.519837    6.233988    0.514632
     30          1           0       -1.608528    6.573487    0.000000
     31          6           0        0.130662    4.772441    1.120982
     32          1           0        0.998150    4.251878    1.535165
     33          1           0        0.251791    4.784623    0.033820
     34          1           0        0.182783    5.810208    1.467169
     35          6           0        0.771867   -0.466077    3.462067
     36          6           0        0.298169    0.797208    5.573269
     37          1           0       -0.770368    0.542625    5.599914
     38          1           0        0.398789    1.766193    6.073417
     39          6           0        0.215926   -0.749911    2.275107
     40          1           0        0.246323   -1.772187    1.898133
     41          6           0        2.149344    1.558858    4.005659
     42          1           0        2.210448    2.482681    4.589091
     43          1           0        2.907985    0.878097    4.400571
     44          1           0        2.428789    1.788071    2.972713
     45          6           0        1.469119   -1.553072    4.258219
     46          1           0        1.343174   -2.522782    3.766775
     47          1           0        2.552507   -1.353426    4.290684
     48          6           0        1.066806   -0.264747    6.374722
     49          1           0        2.126971    0.014807    6.466018
     50          1           0        0.669571   -0.324061    7.394388
     51          6           0       -3.676709    6.612391   -0.456022
     52          1           0       -3.681217    7.705730   -0.558016
     53          1           0       -3.411168    6.232980   -1.449821
     54          6           0        0.969430   -1.636709    5.708174
     55          1           0       -0.078133   -1.961736    5.705401
     56          6           0       -2.593021    7.017218    1.839859
     57          1           0       -3.338312    6.602839    2.526046
     58          1           0       -2.856784    8.064551    1.654934
     59          1           0       -1.632418    7.015100    2.362208
     60          6           0       -5.110692    6.119125   -0.156836
     61          1           0       -5.686671    6.215447   -1.086246
     62          1           0       -5.089257    5.042271    0.052465
     63          6           0       -5.900951    6.808560    0.974138
     64          1           0       -5.410741    6.624263    1.937120
     65          1           0       -6.883285    6.316932    1.042361
     66          6           0       -6.141284    8.326628    0.831470
     67          1           0       -5.164802    8.828323    0.776359
     68          6           0       -6.864591    8.866645    2.075868
     69          1           0       -7.854955    8.405653    2.183313
     70          1           0       -7.008589    9.951398    2.013639
     71          1           0       -6.298693    8.655138    2.990441
     72          6           0       -6.923976    8.682239   -0.442739
     73          1           0       -7.900918    8.181328   -0.452133
     74          1           0       -7.104506    9.761624   -0.502012
     75          1           0       -6.390044    8.387935   -1.351955
 ---------------------------------------------------------------------

 SCF Done:  E(RHF) =  -1198.92138725     A.U. after    9 cycles

 Alpha  occ. eigenvalues --  -20.55906 -20.55579 -11.28031 -11.27899 -11.24898
 Alpha  occ. eigenvalues --  -11.24104 -11.23204 -11.22930 -11.22909 -11.22754
 Alpha  occ. eigenvalues --  -11.22580 -11.22532 -11.22347 -11.22325 -11.22280
 Alpha  occ. eigenvalues --  -11.22258 -11.21986 -11.21863 -11.21683 -11.21595
 Alpha  occ. eigenvalues --  -11.21491 -11.21388 -11.21329 -11.21056 -11.20982
 Alpha  occ. eigenvalues --  -11.20965 -11.20944 -11.20903 -11.20470  -1.35279
 Alpha  occ. eigenvalues --   -1.34770  -1.16079  -1.13888  -1.09540  -1.08016
 Alpha  occ. eigenvalues --   -1.05906  -1.05513  -1.03070  -1.01596  -0.99433
 Alpha  occ. eigenvalues --   -0.97891  -0.96269  -0.92950  -0.92397  -0.92268
 Alpha  occ. eigenvalues --   -0.91471  -0.90641  -0.86191  -0.84075  -0.82822
 Alpha  occ. eigenvalues --   -0.82778  -0.79225  -0.78572  -0.77031  -0.75291
 Alpha  occ. eigenvalues --   -0.73039  -0.71344  -0.69993  -0.67294  -0.66582
 Alpha  occ. eigenvalues --   -0.64851  -0.64048  -0.63807  -0.63444  -0.62594
 Alpha  occ. eigenvalues --   -0.61976  -0.61223  -0.60730  -0.59980  -0.59417
 Alpha  occ. eigenvalues --   -0.58730  -0.58062  -0.57661  -0.57452  -0.56202
 Alpha  occ. eigenvalues --   -0.56103  -0.55509  -0.55202  -0.54645  -0.54445
 Alpha  occ. eigenvalues --   -0.54199  -0.53652  -0.53213  -0.53076  -0.52882
 Alpha  occ. eigenvalues --   -0.52732  -0.52147  -0.50975  -0.50604  -0.50353
 Alpha  occ. eigenvalues --   -0.49620  -0.48504  -0.48137  -0.47956  -0.47265
 Alpha  occ. eigenvalues --   -0.46996  -0.46502  -0.46152  -0.45997  -0.45190
 Alpha  occ. eigenvalues --   -0.44920  -0.44558  -0.43918  -0.43707  -0.43439
 Alpha  occ. eigenvalues --   -0.42957  -0.42538  -0.42019  -0.41625  -0.40403
 Alpha  occ. eigenvalues --   -0.38536  -0.34023
 Alpha virt. eigenvalues --    0.16195   0.20403   0.21041   0.22029   0.22292
 Alpha virt. eigenvalues --    0.23105   0.23891   0.24093   0.24732   0.25490
 Alpha virt. eigenvalues --    0.25872   0.26115   0.26611   0.26716   0.27401

 Mulliken charges:
               1
     1  O   -0.763761
     2  H    0.429062
     3  O   -0.758975
     4  H    0.428118
     5  C   -0.028293
     6  C   -0.167247
     7  H    0.149966
     8  C   -0.167147
     9  H    0.154398
    10  C   -0.167055
    11  H    0.159313
    12  C   -0.142639
    13  H    0.155035
    14  C   -0.298054
    15  H    0.151860
    16  H    0.165085
    17  C   -0.040624
    18  C   -0.297965
    19  H    0.182470
    20  H    0.160159
    21  C   -0.327674
    22  H    0.163805
    23  H    0.166921
    24  C   -0.340871
    25  H    0.158833
    26  H    0.167391
    27  C    0.184637
    28  H    0.176629
    29  C   -0.142570
    30  H    0.155368
    31  C   -0.488344
    32  H    0.159806
    33  H    0.167791
    34  H    0.162044
    35  C    0.074588
    36  C   -0.326064
    37  H    0.166511
    38  H    0.173002
    39  C   -0.291056
    40  H    0.193997
    41  C   -0.477715
    42  H    0.167243
    43  H    0.162559
    44  H    0.164703
    45  C   -0.365992
    46  H    0.193905
    47  H    0.152423
    48  C   -0.340811
    49  H    0.144094
    50  H    0.183695
    51  C   -0.318725
    52  H    0.156705
    53  H    0.163672
    54  C    0.193744
    55  H    0.174240
    56  C   -0.489112
    57  H    0.158397
    58  H    0.159296
    59  H    0.159895
    60  C   -0.319825
    61  H    0.158447
    62  H    0.161163
    63  C   -0.299930
    64  H    0.156486
    65  H    0.149113
    66  C   -0.151557
    67  H    0.155232
    68  C   -0.471972
    69  H    0.152359
    70  H    0.157700
    71  H    0.157155
    72  C   -0.477316
    73  H    0.151977
    74  H    0.157880
    75  H    0.162423
 Sum of Mulliken charges =   0.00000

 Dipole moment (field-independent basis, Debye):
    X=              1.8323    Y=              1.8909    Z=              0.8580  Tot=              2.7693
 Quadrupole moment (field-independent basis, Debye-Ang):
   XX=           -179.8908   YY=           -193.2656   ZZ=           -191.1608
   XY=              2.0828   XZ=              4.4816   YZ=             11.6413

 ESP charges:
               1
     1  O   -0.765645
     2  H    0.416360
     3  O   -0.740563
     4  H    0.406877
     5  C    0.504929
     6  C    0.182478
     7  H   -0.067755
     8  C   -0.144818
     9  H    0.005837
    10  C   -0.103457
    11  H   -0.035214
    12  C   -0.138013
    13  H   -0.018550
    14  C   -0.220878
    15  H    0.013765
    16  H    0.016955
    17  C    0.387597
    18  C   -0.230784
    19  H    0.069368
    20  H    0.021786
    21  C    0.168314
    22  H   -0.037941
    23  H   -0.036373
    24  C    0.071567
    25  H   -0.006452
    26  H   -0.020309
    27  C    0.694227
    28  H   -0.029919
    29  C    0.358816
    30  H   -0.088590
    31  C   -0.492332
    32  H    0.097667
    33  H    0.101193
    34  H    0.092724
    35  C   -0.062941
    36  C   -0.075903
    37  H   -0.005879
    38  H    0.029248
    39  C   -0.554329
    40  H    0.190789
    41  C   -0.180783
    42  H    0.015371
    43  H    0.040041
    44  H    0.021403
    45  C   -0.064171
    46  H    0.034751
    47  H    0.014175
    48  C   -0.144269
    49  H    0.009282
    50  H    0.042232
    51  C    0.017518
    52  H   -0.033691
    53  H   -0.042141
    54  C    0.474374
    55  H    0.001386
    56  C   -0.382118
    57  H    0.072619
    58  H    0.073191
    59  H    0.077510
    60  C    0.036712
    61  H   -0.010983
    62  H   -0.012099
    63  C   -0.093984
    64  H   -0.002415
    65  H   -0.000716
    66  C    0.430859
    67  H   -0.065542
    68  C   -0.393471
    69  H    0.082530
    70  H    0.082909
    71  H    0.071961
    72  C   -0.280133
    73  H    0.054435
    74  H    0.047983
    75  H    0.051424
 Sum of ESP charges =   0.00000

 Normal termination of Gaussian 09 at Wed May 17 11:54:29 2017.
