 Gaussian 09, Revision D.01,
 Gaussian 09:  EM64L-G09RevD.01 24-Apr-2013

 ----------------------------------------------------------------------
 #P HF/6-31G* SCF(Conver=6) NoSymm Test Pop=chelpg IOp(6/33=2) GFInput
 GFPrint
 ----------------------------------------------------------------------

 ----------------------------------------------
 MEP - Input generated by R.E.D.-III.x MOLECULE
 ----------------------------------------------
 Symbolic Z-matrix:
 Charge =  0 Multiplicity = 1

                          Input orientation:
 ---------------------------------------------------------------------
 Center     Atomic      Atomic             Coordinates (Angstroms)
 Number     Number       Type             X           Y           Z
 ---------------------------------------------------------------------
      1          8           0        6.097915    3.762054    0.000000
      2          1           0        5.832557    3.771384   -0.930489
      3          8           0        0.000000    0.000000    0.000000
      4          1           0       -0.109056   -0.170417   -0.946164
      5          6           0        8.825519    0.128248    0.425116
      6          6           0        7.894533    1.317732    0.800117
      7          1           0        7.673500    1.177010    1.872525
      8          6           0        6.522936    1.324252    0.101771
      9          1           0        6.661834    1.437986   -0.983512
     10          6           0        5.785551   -0.013349    0.390724
     11          1           0        5.573363   -0.007126    1.472613
     12          6           0       10.076846    0.476873    1.303462
     13          1           0        9.785326    0.242778    2.338131
     14          6           0        8.071662   -1.162126    0.801532
     15          1           0        7.944613   -1.190172    1.893460
     16          1           0        8.640639   -2.057617    0.531796
     17          6           0        4.386208   -0.113729   -0.311020
     18          6           0        8.803319    2.554430    0.704542
     19          1           0        8.437448    3.387175    1.309645
     20          1           0        8.845886    2.924500   -0.325258
     21          6           0        6.690429   -1.237992    0.123141
     22          1           0        6.836420   -1.361949   -0.955324
     23          1           0        6.186250   -2.148517    0.465499
     24          6           0       10.188657    2.030997    1.172390
     25          1           0       10.967259    2.296943    0.447515
     26          1           0       10.489630    2.482188    2.123446
     27          6           0        5.662078    2.512821    0.572278
     28          1           0        5.818867    2.660630    1.650275
     29          6           0       11.423010   -0.240019    1.031867
     30          1           0       11.718639    0.000000    0.000000
     31          6           0        9.202325    0.122872   -1.073931
     32          1           0        8.324055    0.089207   -1.723955
     33          1           0        9.776835    1.010604   -1.354422
     34          1           0        9.815000   -0.752401   -1.314893
     35          6           0        3.610222    1.193327   -0.114922
     36          6           0        3.574227   -1.267097    0.357355
     37          1           0        3.655809   -1.157270    1.447572
     38          1           0        4.033741   -2.229067    0.107076
     39          6           0        4.194524    2.323935    0.307984
     40          1           0        3.588793    3.216968    0.461810
     41          6           0        4.523473   -0.390353   -1.832254
     42          1           0        4.913608   -1.395149   -2.021324
     43          1           0        3.559469   -0.317948   -2.342504
     44          1           0        5.194395    0.331786   -2.307539
     45          6           0        2.122511    1.167133   -0.411230
     46          1           0        1.664405    2.122212   -0.136136
     47          1           0        1.961221    1.039273   -1.493941
     48          6           0        2.083446   -1.310699   -0.012209
     49          1           0        1.958411   -1.532499   -1.082558
     50          1           0        1.585931   -2.119286    0.535250
     51          6           0       12.568162    0.305363    1.926974
     52          1           0       13.500075   -0.181265    1.604906
     53          1           0       12.707744    1.375091    1.727469
     54          6           0        1.397227    0.017806    0.304276
     55          1           0        1.433671    0.192710    1.386464
     56          6           0       11.345648   -1.774793    1.138854
     57          1           0       10.895397   -2.097242    2.084374
     58          1           0       12.349253   -2.213059    1.083416
     59          1           0       10.756582   -2.212735    0.329034
     60          6           0       12.413960    0.104094    3.443935
     61          1           0       11.506420    0.611518    3.793139
     62          1           0       12.277017   -0.961773    3.662801
     63          6           0       13.630781    0.636610    4.218670
     64          1           0       13.765410    1.700123    3.973305
     65          1           0       14.532140    0.125614    3.850088
     66          6           0       13.588902    0.495799    5.758253
     67          1           0       14.533104    0.924653    6.125515
     68          6           0       13.550744   -0.970879    6.218875
     69          1           0       12.606474   -1.456106    5.946049
     70          1           0       13.650170   -1.040114    7.308190
     71          1           0       14.366447   -1.551157    5.771604
     72          6           0       12.448026    1.304978    6.397258
     73          1           0       11.465319    0.899587    6.129888
     74          1           0       12.521812    1.286444    7.490646
     75          1           0       12.475250    2.353676    6.078588
 ---------------------------------------------------------------------

 SCF Done:  E(RHF) =  -1198.92703883     A.U. after    9 cycles

 Alpha  occ. eigenvalues --  -20.55898 -20.55568 -11.28022 -11.27886 -11.24886
 Alpha  occ. eigenvalues --  -11.24092 -11.23194 -11.22921 -11.22898 -11.22714
 Alpha  occ. eigenvalues --  -11.22572 -11.22520 -11.22430 -11.22267 -11.22265
 Alpha  occ. eigenvalues --  -11.22246 -11.21974 -11.21816 -11.21665 -11.21577
 Alpha  occ. eigenvalues --  -11.21406 -11.21306 -11.21234 -11.21034 -11.20958
 Alpha  occ. eigenvalues --  -11.20955 -11.20942 -11.20897 -11.20456  -1.35270
 Alpha  occ. eigenvalues --   -1.34758  -1.16063  -1.13872  -1.09563  -1.08035
 Alpha  occ. eigenvalues --   -1.05918  -1.05671  -1.03053  -1.01653  -0.99473
 Alpha  occ. eigenvalues --   -0.97889  -0.96256  -0.92855  -0.92311  -0.92256
 Alpha  occ. eigenvalues --   -0.90868  -0.90610  -0.86181  -0.84458  -0.83023
 Alpha  occ. eigenvalues --   -0.82803  -0.79049  -0.78437  -0.76922  -0.74603
 Alpha  occ. eigenvalues --   -0.73537  -0.71642  -0.69957  -0.67273  -0.66490
 Alpha  occ. eigenvalues --   -0.64537  -0.63941  -0.63919  -0.63292  -0.62654
 Alpha  occ. eigenvalues --   -0.62076  -0.61127  -0.60958  -0.60625  -0.59113
 Alpha  occ. eigenvalues --   -0.58754  -0.58470  -0.57684  -0.57196  -0.56451
 Alpha  occ. eigenvalues --   -0.56085  -0.55490  -0.55465  -0.54554  -0.54475
 Alpha  occ. eigenvalues --   -0.54158  -0.53448  -0.53291  -0.52762  -0.52715
 Alpha  occ. eigenvalues --   -0.52256  -0.51706  -0.51406  -0.50888  -0.50222
 Alpha  occ. eigenvalues --   -0.48591  -0.48430  -0.48224  -0.47838  -0.47291
 Alpha  occ. eigenvalues --   -0.46952  -0.46719  -0.46255  -0.45892  -0.45205
 Alpha  occ. eigenvalues --   -0.44993  -0.44776  -0.44484  -0.43482  -0.43425
 Alpha  occ. eigenvalues --   -0.42882  -0.42555  -0.42313  -0.41567  -0.40360
 Alpha  occ. eigenvalues --   -0.38516  -0.34011
 Alpha virt. eigenvalues --    0.16207   0.20734   0.21076   0.22092   0.22236
 Alpha virt. eigenvalues --    0.22857   0.24074   0.24275   0.24800   0.25472
 Alpha virt. eigenvalues --    0.25756   0.26309   0.26619   0.27129   0.27479

 Mulliken charges:
               1
     1  O   -0.763720
     2  H    0.429026
     3  O   -0.758991
     4  H    0.428107
     5  C   -0.028210
     6  C   -0.167283
     7  H    0.149799
     8  C   -0.167238
     9  H    0.154345
    10  C   -0.167026
    11  H    0.159291
    12  C   -0.141362
    13  H    0.155812
    14  C   -0.297792
    15  H    0.152030
    16  H    0.164713
    17  C   -0.040621
    18  C   -0.298041
    19  H    0.182471
    20  H    0.159992
    21  C   -0.327687
    22  H    0.163760
    23  H    0.166899
    24  C   -0.339507
    25  H    0.159063
    26  H    0.165538
    27  C    0.184437
    28  H    0.176637
    29  C   -0.147171
    30  H    0.156548
    31  C   -0.488375
    32  H    0.159762
    33  H    0.167630
    34  H    0.162123
    35  C    0.074455
    36  C   -0.326047
    37  H    0.166479
    38  H    0.172997
    39  C   -0.290775
    40  H    0.193973
    41  C   -0.477616
    42  H    0.167227
    43  H    0.162533
    44  H    0.164664
    45  C   -0.365957
    46  H    0.193898
    47  H    0.152400
    48  C   -0.340796
    49  H    0.144064
    50  H    0.183654
    51  C   -0.309166
    52  H    0.152019
    53  H    0.161995
    54  C    0.193739
    55  H    0.174229
    56  C   -0.486150
    57  H    0.156720
    58  H    0.157583
    59  H    0.160583
    60  C   -0.321503
    61  H    0.159676
    62  H    0.160049
    63  C   -0.300157
    64  H    0.151655
    65  H    0.150931
    66  C   -0.146083
    67  H    0.155288
    68  C   -0.476052
    69  H    0.155322
    70  H    0.158131
    71  H    0.156637
    72  C   -0.476219
    73  H    0.155053
    74  H    0.158267
    75  H    0.157342
 Sum of Mulliken charges =   0.00000

 Dipole moment (field-independent basis, Debye):
    X=              0.6046    Y=             -1.8015    Z=             -1.9729  Tot=              2.7392
 Quadrupole moment (field-independent basis, Debye-Ang):
   XX=           -192.5737   YY=           -193.9893   ZZ=           -181.5245
   XY=            -10.8451   XZ=             -3.5855   YZ=             -2.6844

 ESP charges:
               1
     1  O   -0.759608
     2  H    0.413718
     3  O   -0.741161
     4  H    0.407962
     5  C    0.538731
     6  C    0.108358
     7  H   -0.056289
     8  C   -0.075743
     9  H   -0.016802
    10  C   -0.047763
    11  H   -0.060684
    12  C   -0.044556
    13  H   -0.054589
    14  C   -0.190285
    15  H    0.009021
    16  H    0.012088
    17  C    0.421193
    18  C   -0.197728
    19  H    0.061160
    20  H    0.017282
    21  C    0.114976
    22  H   -0.035174
    23  H   -0.030109
    24  C    0.034946
    25  H   -0.003813
    26  H   -0.004632
    27  C    0.671843
    28  H   -0.028717
    29  C    0.192570
    30  H   -0.029306
    31  C   -0.474901
    32  H    0.092997
    33  H    0.091785
    34  H    0.082766
    35  C   -0.055776
    36  C   -0.173332
    37  H    0.023515
    38  H    0.057881
    39  C   -0.563353
    40  H    0.195093
    41  C   -0.199113
    42  H    0.021914
    43  H    0.044187
    44  H    0.020939
    45  C   -0.089535
    46  H    0.042352
    47  H    0.021220
    48  C   -0.159186
    49  H    0.021318
    50  H    0.052541
    51  C   -0.127444
    52  H    0.021700
    53  H   -0.003592
    54  C    0.476096
    55  H    0.007700
    56  C   -0.347770
    57  H    0.061614
    58  H    0.081532
    59  H    0.075769
    60  C    0.222267
    61  H   -0.027654
    62  H   -0.036585
    63  C   -0.207423
    64  H    0.021458
    65  H    0.017686
    66  C    0.421880
    67  H   -0.078919
    68  C   -0.281819
    69  H    0.049319
    70  H    0.053564
    71  H    0.051094
    72  C   -0.292132
    73  H    0.050009
    74  H    0.057011
    75  H    0.054435
 Sum of ESP charges =   0.00000

 Normal termination of Gaussian 09 at Wed May 17 12:12:10 2017.
