 Gaussian 09, Revision D.01,
 Gaussian 09:  EM64L-G09RevD.01 24-Apr-2013

 ----------------------------------------------------------------------
 #P HF/6-31G* SCF(Conver=6) NoSymm Test Pop=chelpg IOp(6/33=2) GFInput
 GFPrint
 ----------------------------------------------------------------------

 ----------------------------------------------
 MEP - Input generated by R.E.D.-III.x MOLECULE
 ----------------------------------------------
 Symbolic Z-matrix:
 Charge =  0 Multiplicity = 1

                          Input orientation:
 ---------------------------------------------------------------------
 Center     Atomic      Atomic             Coordinates (Angstroms)
 Number     Number       Type             X           Y           Z
 ---------------------------------------------------------------------
      1          8           0        0.000000    0.000000    0.000000
      2          1           0       -0.305131    0.158801    0.904432
      3          8           0       -1.413239    7.026000    0.000000
      4          1           0       -1.477558    7.202018    0.949234
      5          6           0        4.522489    0.506465    0.182768
      6          6           0        3.084892    0.367689   -0.385391
      7          1           0        3.169905    0.644856   -1.450045
      8          6           0        2.062350    1.353740    0.204489
      9          1           0        1.933033    1.156299    1.278725
     10          6           0        2.571662    2.811203    0.001197
     11          1           0        2.549284    2.980410   -1.088037
     12          6           0        5.233766   -0.616760   -0.634974
     13          1           0        5.225493   -0.232977   -1.665423
     14          6           0        5.007158    1.932341   -0.125989
     15          1           0        5.078694    2.053457   -1.216650
     16          1           0        6.014311    2.107635    0.275338
     17          6           0        1.609638    3.889580    0.613043
     18          6           0        2.814524   -1.150478   -0.352560
     19          1           0        2.071540   -1.452120   -1.094641
     20          1           0        2.410112   -1.451473    0.619426
     21          6           0        4.045099    2.992251    0.444681
     22          1           0        4.109207    2.972944    1.537530
     23          1           0        4.397310    3.983793    0.139881
     24          6           0        4.213219   -1.795574   -0.600896
     25          1           0        4.447523   -2.504889    0.197601
     26          1           0        4.238870   -2.365026   -1.536000
     27          6           0        0.679302    1.187397   -0.453538
     28          1           0        0.817293    1.004121   -1.528696
     29          6           0        6.732172   -0.939600   -0.341388
     30          1           0        7.190269    0.000000    0.000000
     31          6           0        4.582577    0.239092    1.702720
     32          1           0        3.942757    0.921507    2.268319
     33          1           0        4.270520   -0.777779    1.955974
     34          1           0        5.603254    0.376573    2.073963
     35          6           0        0.159307    3.570179    0.233064
     36          6           0        1.973912    5.283401    0.012104
     37          1           0        2.080583    5.171012   -1.075692
     38          1           0        2.952538    5.598426    0.389158
     39          6           0       -0.212820    2.382286   -0.265889
     40          1           0       -1.252308    2.220824   -0.551291
     41          6           0        1.720163    3.947412    2.160390
     42          1           0        2.689081    4.345903    2.476529
     43          1           0        0.950594    4.590945    2.594551
     44          1           0        1.597694    2.954598    2.604025
     45          6           0       -0.866960    4.669751    0.431655
     46          1           0       -1.837081    4.359195    0.031502
     47          1           0       -1.013055    4.852589    1.508582
     48          6           0        0.949203    6.395777    0.283625
     49          1           0        0.897239    6.616646    1.360168
     50          1           0        1.262857    7.321949   -0.211211
     51          6           0        6.975932   -2.010080    0.749489
     52          1           0        6.398246   -1.763074    1.645979
     53          1           0        6.577688   -2.969065    0.393201
     54          6           0       -0.441352    5.998325   -0.210669
     55          1           0       -0.414076    5.874416   -1.300142
     56          6           0        7.440271   -1.331169   -1.655078
     57          1           0        7.025986   -2.262717   -2.061216
     58          1           0        8.515295   -1.480482   -1.516708
     59          1           0        7.314202   -0.552450   -2.415228
     60          6           0        8.447478   -2.251301    1.152071
     61          1           0        8.463594   -3.071171    1.881486
     62          1           0        9.004421   -2.628786    0.285944
     63          6           0        9.218394   -1.047409    1.725218
     64          1           0        9.255653   -0.247682    0.973158
     65          1           0       10.263164   -1.354059    1.883110
     66          6           0        8.691854   -0.450563    3.047525
     67          1           0        7.646654   -0.145789    2.896689
     68          6           0        9.490454    0.810143    3.416272
     69          1           0       10.547729    0.567467    3.583641
     70          1           0        9.106829    1.271359    4.333575
     71          1           0        9.444665    1.560497    2.618501
     72          6           0        8.721725   -1.463255    4.203502
     73          1           0        9.744680   -1.819642    4.381862
     74          1           0        8.363034   -1.006466    5.132928
     75          1           0        8.094422   -2.337859    4.003833
 ---------------------------------------------------------------------

 SCF Done:  E(RHF) =  -1198.92202370     A.U. after    9 cycles

 Alpha  occ. eigenvalues --  -20.55911 -20.55584 -11.28035 -11.27886 -11.24930
 Alpha  occ. eigenvalues --  -11.24108 -11.23306 -11.22933 -11.22923 -11.22588
 Alpha  occ. eigenvalues --  -11.22558 -11.22530 -11.22517 -11.22363 -11.22291
 Alpha  occ. eigenvalues --  -11.22258 -11.22084 -11.21769 -11.21726 -11.21637
 Alpha  occ. eigenvalues --  -11.21554 -11.21495 -11.21291 -11.21188 -11.21117
 Alpha  occ. eigenvalues --  -11.21032 -11.20920 -11.20887 -11.20594  -1.35284
 Alpha  occ. eigenvalues --   -1.34776  -1.16110  -1.13918  -1.09686  -1.08051
 Alpha  occ. eigenvalues --   -1.05948  -1.05619  -1.03053  -1.01707  -0.99538
 Alpha  occ. eigenvalues --   -0.97918  -0.96171  -0.92711  -0.92513  -0.92059
 Alpha  occ. eigenvalues --   -0.91530  -0.90709  -0.86196  -0.84201  -0.83016
 Alpha  occ. eigenvalues --   -0.82871  -0.79369  -0.78463  -0.77355  -0.75221
 Alpha  occ. eigenvalues --   -0.72903  -0.71356  -0.69982  -0.67267  -0.66403
 Alpha  occ. eigenvalues --   -0.64377  -0.64355  -0.63665  -0.63617  -0.62818
 Alpha  occ. eigenvalues --   -0.62306  -0.61423  -0.60661  -0.60322  -0.59160
 Alpha  occ. eigenvalues --   -0.58914  -0.58323  -0.57938  -0.57473  -0.56288
 Alpha  occ. eigenvalues --   -0.56113  -0.55743  -0.55128  -0.54785  -0.54557
 Alpha  occ. eigenvalues --   -0.53885  -0.53580  -0.53221  -0.53033  -0.52742
 Alpha  occ. eigenvalues --   -0.52273  -0.52016  -0.51519  -0.51124  -0.50206
 Alpha  occ. eigenvalues --   -0.48868  -0.48416  -0.48176  -0.48034  -0.47553
 Alpha  occ. eigenvalues --   -0.46856  -0.46581  -0.46238  -0.46049  -0.45283
 Alpha  occ. eigenvalues --   -0.45032  -0.44930  -0.44417  -0.43831  -0.43426
 Alpha  occ. eigenvalues --   -0.42615  -0.42517  -0.41943  -0.41615  -0.40418
 Alpha  occ. eigenvalues --   -0.38651  -0.34024
 Alpha virt. eigenvalues --    0.16187   0.20094   0.21087   0.21929   0.22382
 Alpha virt. eigenvalues --    0.23260   0.23622   0.24176   0.24686   0.25525
 Alpha virt. eigenvalues --    0.25660   0.26335   0.26572   0.26864   0.27258

 Mulliken charges:
               1
     1  O   -0.763730
     2  H    0.429022
     3  O   -0.758953
     4  H    0.428123
     5  C   -0.031650
     6  C   -0.166714
     7  H    0.150320
     8  C   -0.167847
     9  H    0.154493
    10  C   -0.167598
    11  H    0.159582
    12  C   -0.146304
    13  H    0.155662
    14  C   -0.296194
    15  H    0.152628
    16  H    0.158362
    17  C   -0.040516
    18  C   -0.298671
    19  H    0.180739
    20  H    0.160825
    21  C   -0.327995
    22  H    0.164854
    23  H    0.167627
    24  C   -0.334606
    25  H    0.164973
    26  H    0.163539
    27  C    0.186003
    28  H    0.176558
    29  C   -0.149066
    30  H    0.159146
    31  C   -0.494984
    32  H    0.160367
    33  H    0.168218
    34  H    0.168357
    35  C    0.074402
    36  C   -0.326225
    37  H    0.166494
    38  H    0.173075
    39  C   -0.291246
    40  H    0.194090
    41  C   -0.477850
    42  H    0.167042
    43  H    0.162707
    44  H    0.165036
    45  C   -0.366062
    46  H    0.193928
    47  H    0.152381
    48  C   -0.340776
    49  H    0.144122
    50  H    0.183699
    51  C   -0.317615
    52  H    0.163618
    53  H    0.157543
    54  C    0.193762
    55  H    0.174256
    56  C   -0.484647
    57  H    0.155492
    58  H    0.162845
    59  H    0.157642
    60  C   -0.317388
    61  H    0.158901
    62  H    0.159662
    63  C   -0.303012
    64  H    0.154884
    65  H    0.151158
    66  C   -0.159947
    67  H    0.160701
    68  C   -0.471021
    69  H    0.153468
    70  H    0.157428
    71  H    0.156025
    72  C   -0.475929
    73  H    0.152589
    74  H    0.157759
    75  H    0.162438
 Sum of Mulliken charges =   0.00000

 Dipole moment (field-independent basis, Debye):
    X=              1.3986    Y=              0.8307    Z=              2.1454  Tot=              2.6924
 Quadrupole moment (field-independent basis, Debye-Ang):
   XX=           -187.8244   YY=           -193.6693   ZZ=           -182.0641
   XY=              9.0042   XZ=             -3.5568   YZ=              9.7738

 ESP charges:
               1
     1  O   -0.761822
     2  H    0.413717
     3  O   -0.741074
     4  H    0.407276
     5  C    0.489951
     6  C    0.144862
     7  H   -0.066906
     8  C   -0.023974
     9  H   -0.026820
    10  C   -0.087342
    11  H   -0.048326
    12  C   -0.168338
    13  H    0.011476
    14  C   -0.280301
    15  H    0.030845
    16  H    0.030202
    17  C    0.376089
    18  C   -0.204293
    19  H    0.060961
    20  H    0.019247
    21  C    0.193298
    22  H   -0.047688
    23  H   -0.035312
    24  C    0.070408
    25  H   -0.014563
    26  H   -0.012364
    27  C    0.656974
    28  H   -0.028292
    29  C    0.286434
    30  H   -0.057047
    31  C   -0.544292
    32  H    0.107851
    33  H    0.117058
    34  H    0.135406
    35  C   -0.062285
    36  C   -0.116035
    37  H    0.008555
    38  H    0.038515
    39  C   -0.548320
    40  H    0.192715
    41  C   -0.210965
    42  H    0.026991
    43  H    0.048487
    44  H    0.029678
    45  C   -0.080609
    46  H    0.040534
    47  H    0.019093
    48  C   -0.135654
    49  H    0.012531
    50  H    0.042117
    51  C    0.017604
    52  H   -0.016517
    53  H   -0.019612
    54  C    0.473759
    55  H    0.004270
    56  C   -0.336020
    57  H    0.068379
    58  H    0.080040
    59  H    0.058808
    60  C   -0.034294
    61  H   -0.000695
    62  H    0.009528
    63  C   -0.105203
    64  H    0.002785
    65  H    0.001023
    66  C    0.557519
    67  H   -0.152374
    68  C   -0.410703
    69  H    0.072258
    70  H    0.086381
    71  H    0.075770
    72  C   -0.291797
    73  H    0.048940
    74  H    0.046561
    75  H    0.054944
 Sum of ESP charges =   0.00000

 Normal termination of Gaussian 09 at Wed May 17 12:21:21 2017.
