 Gaussian 09, Revision D.01,
 Gaussian 09:  EM64L-G09RevD.01 24-Apr-2013

 ----------------------------------------------------------------------
 #P HF/6-31G* SCF(Conver=6) NoSymm Test Pop=chelpg IOp(6/33=2) GFInput
 GFPrint
 ----------------------------------------------------------------------

 ----------------------------------------------
 MEP - Input generated by R.E.D.-III.x MOLECULE
 ----------------------------------------------
 Symbolic Z-matrix:
 Charge =  0 Multiplicity = 1

                          Input orientation:
 ---------------------------------------------------------------------
 Center     Atomic      Atomic             Coordinates (Angstroms)
 Number     Number       Type             X           Y           Z
 ---------------------------------------------------------------------
      1          8           0        0.000000    0.000000    0.000000
      2          1           0        0.967626    0.000000    0.000000
      3          8           0        1.642278   -2.742847    6.411424
      4          1           0        2.580658   -2.514833    6.471490
      5          6           0       -1.192914    4.106150    1.597556
      6          6           0       -1.286322    2.611705    1.171824
      7          1           0       -2.258504    2.265057    1.563789
      8          6           0       -0.237581    1.679531    1.804876
      9          1           0        0.768401    1.978781    1.475576
     10          6           0       -0.323276    1.774893    3.353731
     11          1           0       -1.305114    1.351977    3.623345
     12          6           0       -2.379074    4.705076    0.763103
     13          1           0       -3.300804    4.386012    1.275547
     14          6           0       -1.356543    4.140072    3.130263
     15          1           0       -2.371065    3.799210    3.382899
     16          1           0       -1.262729    5.155476    3.527533
     17          6           0        0.735191    0.881184    4.089619
     18          6           0       -1.430679    2.664977   -0.356844
     19          1           0       -1.886388    1.760130   -0.765370
     20          1           0       -0.449059    2.752223   -0.834557
     21          6           0       -0.323830    3.242654    3.838280
     22          1           0        0.671652    3.678439    3.700416
     23          1           0       -0.519678    3.273604    4.915865
     24          6           0       -2.291049    3.933992   -0.597957
     25          1           0       -1.840293    4.570496   -1.369082
     26          1           0       -3.288870    3.670833   -0.961940
     27          6           0       -0.442835    0.220065    1.354147
     28          1           0       -1.521026    0.011548    1.304139
     29          6           0       -2.485967    6.240957    0.572399
     30          1           0       -1.604875    6.569440    0.000000
     31          6           0        0.144728    4.755145    1.173316
     32          1           0        1.011293    4.222575    1.573917
     33          1           0        0.258094    4.782691    0.085583
     34          1           0        0.206105    5.787363    1.533346
     35          6           0        0.770692   -0.513353    3.454981
     36          6           0        0.305550    0.726026    5.582174
     37          1           0       -0.764056    0.475779    5.607261
     38          1           0        0.411129    1.688439    6.093870
     39          6           0        0.212235   -0.780016    2.265222
     40          1           0        0.237819   -1.797644    1.875523
     41          6           0        2.157638    1.498844    4.020851
     42          1           0        2.223768    2.415099    4.615580
     43          1           0        2.914248    0.810067    4.405634
     44          1           0        2.435760    1.739737    2.990235
     45          6           0        1.463919   -1.613239    4.236889
     46          1           0        1.332814   -2.576261    3.733782
     47          1           0        2.548280   -1.419053    4.270243
     48          6           0        1.070457   -0.349053    6.369529
     49          1           0        2.131998   -0.075546    6.462849
     50          1           0        0.674287   -0.419037    7.388937
     51          6           0       -3.735590    6.588010   -0.275165
     52          1           0       -3.776825    5.926945   -1.148110
     53          1           0       -4.636354    6.364453    0.317241
     54          6           0        0.965896   -1.712310    5.686420
     55          1           0       -0.083138   -2.032510    5.681196
     56          6           0       -2.508968    7.020905    1.899055
     57          1           0       -3.319793    6.666108    2.547837
     58          1           0       -2.666909    8.089780    1.727343
     59          1           0       -1.572525    6.923826    2.452801
     60          6           0       -3.808621    8.037465   -0.783778
     61          1           0       -3.849947    8.733538    0.061601
     62          1           0       -2.883009    8.266460   -1.329366
     63          6           0       -5.023794    8.270321   -1.696601
     64          1           0       -5.934929    8.001001   -1.142796
     65          1           0       -4.967025    7.570594   -2.542944
     66          6           0       -5.203998    9.699343   -2.259984
     67          1           0       -6.108360    9.664227   -2.885445
     68          6           0       -4.041864   10.127954   -3.171169
     69          1           0       -3.109534   10.248937   -2.607602
     70          1           0       -4.258375   11.087878   -3.653824
     71          1           0       -3.861445    9.389930   -3.961663
     72          6           0       -5.457720   10.743694   -1.160089
     73          1           0       -4.575035   10.886640   -0.526113
     74          1           0       -5.706142   11.717563   -1.597279
     75          1           0       -6.290639   10.446482   -0.512000
 ---------------------------------------------------------------------

 SCF Done:  E(RHF) =  -1198.92738719     A.U. after    9 cycles

 Alpha  occ. eigenvalues --  -20.55895 -20.55562 -11.28018 -11.27882 -11.24877
 Alpha  occ. eigenvalues --  -11.24087 -11.23177 -11.22918 -11.22892 -11.22736
 Alpha  occ. eigenvalues --  -11.22566 -11.22510 -11.22459 -11.22277 -11.22264
 Alpha  occ. eigenvalues --  -11.22241 -11.21959 -11.21918 -11.21656 -11.21558
 Alpha  occ. eigenvalues --  -11.21439 -11.21340 -11.21240 -11.21023 -11.20982
 Alpha  occ. eigenvalues --  -11.20961 -11.20949 -11.20824 -11.20418  -1.35267
 Alpha  occ. eigenvalues --   -1.34752  -1.16050  -1.13847  -1.09581  -1.08075
 Alpha  occ. eigenvalues --   -1.05922  -1.05715  -1.03047  -1.01702  -0.99501
 Alpha  occ. eigenvalues --   -0.97910  -0.96230  -0.92847  -0.92334  -0.92273
 Alpha  occ. eigenvalues --   -0.90888  -0.90572  -0.86174  -0.84298  -0.82807
 Alpha  occ. eigenvalues --   -0.82664  -0.78964  -0.78346  -0.76974  -0.74621
 Alpha  occ. eigenvalues --   -0.74067  -0.72004  -0.69934  -0.67248  -0.66463
 Alpha  occ. eigenvalues --   -0.64655  -0.64035  -0.63808  -0.63346  -0.62503
 Alpha  occ. eigenvalues --   -0.62255  -0.61219  -0.60746  -0.60233  -0.59252
 Alpha  occ. eigenvalues --   -0.58665  -0.58399  -0.57915  -0.57497  -0.56314
 Alpha  occ. eigenvalues --   -0.56062  -0.55575  -0.55439  -0.54795  -0.54504
 Alpha  occ. eigenvalues --   -0.54136  -0.53336  -0.53158  -0.52847  -0.52495
 Alpha  occ. eigenvalues --   -0.52205  -0.51539  -0.50895  -0.50778  -0.50611
 Alpha  occ. eigenvalues --   -0.48619  -0.48288  -0.48097  -0.48010  -0.47152
 Alpha  occ. eigenvalues --   -0.46977  -0.46495  -0.46013  -0.45922  -0.45376
 Alpha  occ. eigenvalues --   -0.44973  -0.44823  -0.44534  -0.43955  -0.43431
 Alpha  occ. eigenvalues --   -0.43306  -0.42508  -0.42346  -0.41517  -0.40347
 Alpha  occ. eigenvalues --   -0.38405  -0.34007
 Alpha virt. eigenvalues --    0.16215   0.20936   0.21338   0.21975   0.22309
 Alpha virt. eigenvalues --    0.22807   0.24239   0.24650   0.24949   0.25768
 Alpha virt. eigenvalues --    0.25826   0.26198   0.26646   0.26803   0.27539

 Mulliken charges:
               1
     1  O   -0.763774
     2  H    0.429033
     3  O   -0.758995
     4  H    0.428102
     5  C   -0.029777
     6  C   -0.167541
     7  H    0.150149
     8  C   -0.167313
     9  H    0.154323
    10  C   -0.166995
    11  H    0.159346
    12  C   -0.135695
    13  H    0.151759
    14  C   -0.297910
    15  H    0.152318
    16  H    0.164893
    17  C   -0.040624
    18  C   -0.298277
    19  H    0.183479
    20  H    0.159151
    21  C   -0.327568
    22  H    0.163658
    23  H    0.166844
    24  C   -0.340156
    25  H    0.158155
    26  H    0.166738
    27  C    0.184286
    28  H    0.176688
    29  C   -0.148723
    30  H    0.152103
    31  C   -0.487613
    32  H    0.159401
    33  H    0.167567
    34  H    0.162541
    35  C    0.074486
    36  C   -0.326050
    37  H    0.166487
    38  H    0.172985
    39  C   -0.290616
    40  H    0.193944
    41  C   -0.477662
    42  H    0.167244
    43  H    0.162514
    44  H    0.164628
    45  C   -0.365967
    46  H    0.193881
    47  H    0.152376
    48  C   -0.340749
    49  H    0.144073
    50  H    0.183639
    51  C   -0.307655
    52  H    0.167120
    53  H    0.147329
    54  C    0.193728
    55  H    0.174217
    56  C   -0.485019
    57  H    0.152767
    58  H    0.163419
    59  H    0.160736
    60  C   -0.314643
    61  H    0.158752
    62  H    0.153971
    63  C   -0.300869
    64  H    0.151581
    65  H    0.151787
    66  C   -0.146359
    67  H    0.155476
    68  C   -0.476154
    69  H    0.155885
    70  H    0.158016
    71  H    0.156996
    72  C   -0.476222
    73  H    0.155208
    74  H    0.158315
    75  H    0.156833
 Sum of Mulliken charges =   0.00000

 Dipole moment (field-independent basis, Debye):
    X=              1.6479    Y=              1.8911    Z=              0.8843  Tot=              2.6596
 Quadrupole moment (field-independent basis, Debye-Ang):
   XX=           -177.7625   YY=           -194.0809   ZZ=           -190.4424
   XY=              0.1178   XZ=              4.3615   YZ=             11.8957

 ESP charges:
               1
     1  O   -0.764228
     2  H    0.417639
     3  O   -0.741526
     4  H    0.407585
     5  C    0.661645
     6  C    0.096629
     7  H   -0.050569
     8  C   -0.153561
     9  H    0.014679
    10  C   -0.148636
    11  H   -0.018489
    12  C   -0.148453
    13  H   -0.018810
    14  C   -0.239398
    15  H    0.012409
    16  H    0.012322
    17  C    0.376895
    18  C   -0.216973
    19  H    0.074431
    20  H    0.023927
    21  C    0.175045
    22  H   -0.043516
    23  H   -0.031559
    24  C    0.029466
    25  H    0.001431
    26  H   -0.000170
    27  C    0.687908
    28  H   -0.022406
    29  C    0.199523
    30  H   -0.029127
    31  C   -0.488975
    32  H    0.094880
    33  H    0.093596
    34  H    0.079666
    35  C   -0.029597
    36  C   -0.095244
    37  H    0.003165
    38  H    0.039664
    39  C   -0.550421
    40  H    0.188063
    41  C   -0.213375
    42  H    0.029431
    43  H    0.047773
    44  H    0.033256
    45  C   -0.111102
    46  H    0.045900
    47  H    0.026186
    48  C   -0.153879
    49  H    0.015795
    50  H    0.044170
    51  C   -0.090165
    52  H    0.007096
    53  H    0.022928
    54  C    0.487328
    55  H    0.002329
    56  C   -0.346547
    57  H    0.070386
    58  H    0.070215
    59  H    0.077973
    60  C    0.134777
    61  H   -0.014697
    62  H   -0.033758
    63  C   -0.136601
    64  H   -0.002601
    65  H    0.005303
    66  C    0.432758
    67  H   -0.088091
    68  C   -0.267107
    69  H    0.045881
    70  H    0.048196
    71  H    0.046364
    72  C   -0.303639
    73  H    0.052981
    74  H    0.058594
    75  H    0.057033
 Sum of ESP charges =   0.00000

 Normal termination of Gaussian 09 at Wed May 17 12:50:58 2017.
