 Gaussian 09, Revision D.01,
 Gaussian 09:  EM64L-G09RevD.01 24-Apr-2013

 ----------------------------------------------------------------------
 #P HF/6-31G* SCF(Conver=6) NoSymm Test Pop=chelpg IOp(6/33=2) GFInput
 GFPrint
 ----------------------------------------------------------------------

 ----------------------------------------------
 MEP - Input generated by R.E.D.-III.x MOLECULE
 ----------------------------------------------
 Symbolic Z-matrix:
 Charge =  0 Multiplicity = 1

                          Input orientation:
 ---------------------------------------------------------------------
 Center     Atomic      Atomic             Coordinates (Angstroms)
 Number     Number       Type             X           Y           Z
 ---------------------------------------------------------------------
      1          8           0        7.127112    0.878509    0.000000
      2          1           0        7.532745    0.000000    0.000000
      3          8           0        8.705643   -0.151890   -6.914251
      4          1           0        8.878436   -1.103826   -6.925179
      5          6           0        2.668311    0.101939   -0.491407
      6          6           0        4.027774    0.848499   -0.447550
      7          1           0        3.829193    1.831987   -0.907209
      8          6           0        5.133825    0.217997   -1.310407
      9          1           0        5.374449   -0.785446   -0.929752
     10          6           0        4.641827    0.110796   -2.783997
     11          1           0        4.547551    1.150756   -3.137721
     12          6           0        1.838032    1.010847    0.468012
     13          1           0        1.708111    1.945001   -0.097810
     14          6           0        2.185610    0.103291   -1.951387
     15          1           0        1.991709    1.141253   -2.258340
     16          1           0        1.235735   -0.437554   -2.058588
     17          6           0        5.692210   -0.562427   -3.735917
     18          6           0        4.261594    1.112662    1.053439
     19          1           0        4.921576    1.966409    1.224250
     20          1           0        4.749352    0.254186    1.526927
     21          6           0        3.231661   -0.521892   -2.894671
     22          1           0        3.290038   -1.596387   -2.692609
     23          1           0        2.871851   -0.429035   -3.925227
     24          6           0        2.828923    1.331725    1.629925
     25          1           0        2.661322    0.678642    2.491011
     26          1           0        2.690579    2.356759    1.989722
     27          6           0        6.431848    1.045640   -1.251338
     28          1           0        6.172435    2.113947   -1.255171
     29          6           0        0.398325    0.564816    0.857083
     30          1           0        0.000000    0.000000    0.000000
     31          6           0        2.772212   -1.347068    0.033842
     32          1           0        3.460588   -1.952710   -0.561329
     33          1           0        3.123581   -1.387209    1.068464
     34          1           0        1.794623   -1.839598   -0.005535
     35          6           0        7.083250    0.028002   -3.478397
     36          6           0        5.298316   -0.252275   -5.214207
     37          1           0        5.068597    0.819505   -5.290617
     38          1           0        4.375817   -0.786185   -5.465353
     39          6           0        7.368519    0.760022   -2.391521
     40          1           0        8.365897    1.184145   -2.275670
     41          6           0        5.755346   -2.099486   -3.527525
     42          1           0        4.838791   -2.587171   -3.873377
     43          1           0        6.585617   -2.546480   -4.080420
     44          1           0        5.898956   -2.350771   -2.472196
     45          6           0        8.152023   -0.237021   -4.522027
     46          1           0        9.064152    0.316895   -4.279336
     47          1           0        8.420420   -1.305884   -4.517006
     48          6           0        6.374145   -0.590229   -6.258020
     49          1           0        6.550472   -1.675713   -6.291336
     50          1           0        6.030716   -0.298082   -7.256892
     51          6           0        0.293908   -0.354231    2.097999
     52          1           0        1.133222   -1.056501    2.125221
     53          1           0        0.384003    0.257516    3.006987
     54          6           0        7.691199    0.118519   -5.943230
     55          1           0        7.540556    1.203038   -6.007755
     56          6           0       -0.500544    1.805895    1.034772
     57          1           0       -0.115285    2.453732    1.832041
     58          1           0       -1.527758    1.533615    1.297853
     59          1           0       -0.542545    2.399558    0.114787
     60          6           0       -1.009139   -1.168401    2.168930
     61          1           0       -1.872242   -0.492579    2.141912
     62          1           0       -1.081045   -1.795357    1.269759
     63          6           0       -1.082311   -2.048374    3.427094
     64          1           0       -0.992068   -1.402252    4.312283
     65          1           0       -0.203668   -2.709532    3.445279
     66          6           0       -2.348951   -2.920587    3.590716
     67          1           0       -2.216978   -3.468792    4.535351
     68          6           0       -2.493611   -3.970643    2.476651
     69          1           0       -2.692001   -3.504366    1.504683
     70          1           0       -3.326332   -4.651190    2.688059
     71          1           0       -1.584640   -4.575858    2.378191
     72          6           0       -3.631439   -2.083724    3.730727
     73          1           0       -3.870502   -1.551309    2.802890
     74          1           0       -4.489273   -2.722330    3.970617
     75          1           0       -3.536525   -1.338391    4.529188
 ---------------------------------------------------------------------

 SCF Done:  E(RHF) =  -1198.92505655     A.U. after    9 cycles

 Alpha  occ. eigenvalues --  -20.55905 -20.55575 -11.28028 -11.27876 -11.24922
 Alpha  occ. eigenvalues --  -11.24100 -11.23295 -11.22925 -11.22916 -11.22583
 Alpha  occ. eigenvalues --  -11.22548 -11.22531 -11.22490 -11.22307 -11.22284
 Alpha  occ. eigenvalues --  -11.22251 -11.22068 -11.21713 -11.21700 -11.21626
 Alpha  occ. eigenvalues --  -11.21505 -11.21415 -11.21217 -11.21055 -11.21039
 Alpha  occ. eigenvalues --  -11.21028 -11.20899 -11.20895 -11.20580  -1.35278
 Alpha  occ. eigenvalues --   -1.34765  -1.16094  -1.13903  -1.09566  -1.08062
 Alpha  occ. eigenvalues --   -1.05952  -1.05674  -1.03042  -1.01723  -0.99681
 Alpha  occ. eigenvalues --   -0.97917  -0.96179  -0.92629  -0.92403  -0.92052
 Alpha  occ. eigenvalues --   -0.91254  -0.90631  -0.86187  -0.84000  -0.82934
 Alpha  occ. eigenvalues --   -0.82869  -0.79578  -0.78441  -0.77330  -0.74550
 Alpha  occ. eigenvalues --   -0.73345  -0.71645  -0.69963  -0.67254  -0.66305
 Alpha  occ. eigenvalues --   -0.64427  -0.64023  -0.63883  -0.63549  -0.62753
 Alpha  occ. eigenvalues --   -0.62317  -0.61169  -0.60677  -0.60197  -0.59600
 Alpha  occ. eigenvalues --   -0.58841  -0.58562  -0.57920  -0.57544  -0.56317
 Alpha  occ. eigenvalues --   -0.56154  -0.55904  -0.55232  -0.54624  -0.54334
 Alpha  occ. eigenvalues --   -0.53821  -0.53476  -0.53147  -0.52816  -0.52581
 Alpha  occ. eigenvalues --   -0.52268  -0.51766  -0.51205  -0.50932  -0.49799
 Alpha  occ. eigenvalues --   -0.48708  -0.48511  -0.48276  -0.47993  -0.47380
 Alpha  occ. eigenvalues --   -0.47048  -0.46577  -0.46338  -0.45905  -0.45230
 Alpha  occ. eigenvalues --   -0.45088  -0.44998  -0.44469  -0.44357  -0.43462
 Alpha  occ. eigenvalues --   -0.42556  -0.42461  -0.41791  -0.41631  -0.40402
 Alpha  occ. eigenvalues --   -0.38647  -0.34017
 Alpha virt. eigenvalues --    0.16196   0.20797   0.21199   0.21908   0.22406
 Alpha virt. eigenvalues --    0.22746   0.23938   0.24294   0.24732   0.25170
 Alpha virt. eigenvalues --    0.25955   0.26319   0.26797   0.27157   0.27482

 Mulliken charges:
               1
     1  O   -0.763765
     2  H    0.429003
     3  O   -0.758959
     4  H    0.428113
     5  C   -0.032103
     6  C   -0.166499
     7  H    0.149957
     8  C   -0.167669
     9  H    0.154614
    10  C   -0.167624
    11  H    0.159596
    12  C   -0.148551
    13  H    0.155754
    14  C   -0.295708
    15  H    0.152763
    16  H    0.158968
    17  C   -0.040353
    18  C   -0.299233
    19  H    0.181227
    20  H    0.160256
    21  C   -0.328238
    22  H    0.164637
    23  H    0.167621
    24  C   -0.334259
    25  H    0.166641
    26  H    0.163314
    27  C    0.185737
    28  H    0.176565
    29  C   -0.143528
    30  H    0.155629
    31  C   -0.487680
    32  H    0.160338
    33  H    0.167567
    34  H    0.162354
    35  C    0.074298
    36  C   -0.326218
    37  H    0.166503
    38  H    0.173073
    39  C   -0.291090
    40  H    0.194059
    41  C   -0.478006
    42  H    0.166974
    43  H    0.162721
    44  H    0.165106
    45  C   -0.366024
    46  H    0.193917
    47  H    0.152351
    48  C   -0.340759
    49  H    0.144075
    50  H    0.183668
    51  C   -0.313886
    52  H    0.163438
    53  H    0.153030
    54  C    0.193744
    55  H    0.174252
    56  C   -0.482279
    57  H    0.156045
    58  H    0.160630
    59  H    0.157360
    60  C   -0.314803
    61  H    0.158577
    62  H    0.152577
    63  C   -0.300699
    64  H    0.152279
    65  H    0.150545
    66  C   -0.146309
    67  H    0.155445
    68  C   -0.476048
    69  H    0.155719
    70  H    0.158252
    71  H    0.156172
    72  C   -0.476462
    73  H    0.155698
    74  H    0.158343
    75  H    0.157245
 Sum of Mulliken charges =   0.00000

 Dipole moment (field-independent basis, Debye):
    X=             -1.1565    Y=             -2.4826    Z=             -0.4405  Tot=              2.7739
 Quadrupole moment (field-independent basis, Debye-Ang):
   XX=           -203.8970   YY=           -183.4125   ZZ=           -196.0086
   XY=            -20.7871   XZ=              5.5424   YZ=              7.6389

 ESP charges:
               1
     1  O   -0.760784
     2  H    0.415370
     3  O   -0.738792
     4  H    0.412098
     5  C    0.544721
     6  C    0.070999
     7  H   -0.056307
     8  C   -0.037758
     9  H   -0.026548
    10  C    0.040991
    11  H   -0.074774
    12  C   -0.057518
    13  H   -0.018758
    14  C   -0.294432
    15  H    0.028658
    16  H    0.037302
    17  C    0.209349
    18  C   -0.214126
    19  H    0.065943
    20  H    0.024463
    21  C    0.169312
    22  H   -0.040827
    23  H   -0.038399
    24  C    0.086648
    25  H   -0.033363
    26  H   -0.018796
    27  C    0.656052
    28  H   -0.023637
    29  C    0.144789
    30  H   -0.038565
    31  C   -0.509652
    32  H    0.099454
    33  H    0.111991
    34  H    0.090513
    35  C    0.051386
    36  C   -0.072438
    37  H    0.012692
    38  H    0.045635
    39  C   -0.562038
    40  H    0.190362
    41  C   -0.209681
    42  H    0.036239
    43  H    0.053429
    44  H    0.034064
    45  C   -0.235761
    46  H    0.079948
    47  H    0.062469
    48  C   -0.223115
    49  H    0.044640
    50  H    0.062967
    51  C   -0.001191
    52  H    0.000939
    53  H   -0.003465
    54  C    0.496269
    55  H    0.017207
    56  C   -0.322903
    57  H    0.071031
    58  H    0.072529
    59  H    0.069030
    60  C    0.097922
    61  H   -0.012732
    62  H   -0.029002
    63  C   -0.156987
    64  H    0.006396
    65  H    0.001987
    66  C    0.456101
    67  H   -0.095083
    68  C   -0.266504
    69  H    0.045082
    70  H    0.046360
    71  H    0.045337
    72  C   -0.288084
    73  H    0.050379
    74  H    0.051863
    75  H    0.051102
 Sum of ESP charges =   0.00000

 Normal termination of Gaussian 09 at Wed May 17 11:59:24 2017.
