 Gaussian 09, Revision D.01,
 Gaussian 09:  EM64L-G09RevD.01 24-Apr-2013

 ----------------------------------------------------------------------
 #P HF/6-31G* SCF(Conver=6) NoSymm Test Pop=chelpg IOp(6/33=2) GFInput
 GFPrint
 ----------------------------------------------------------------------

 ----------------------------------------------
 MEP - Input generated by R.E.D.-III.x MOLECULE
 ----------------------------------------------
 Symbolic Z-matrix:
 Charge =  0 Multiplicity = 1

                          Input orientation:
 ---------------------------------------------------------------------
 Center     Atomic      Atomic             Coordinates (Angstroms)
 Number     Number       Type             X           Y           Z
 ---------------------------------------------------------------------
      1          8           0        6.680325    0.900192    0.000000
      2          1           0        7.035219    0.000000    0.000000
      3          8           0        9.841966    0.376062   -6.407791
      4          1           0        9.972320   -0.580713   -6.469043
      5          6           0        2.425235    0.515766   -1.604261
      6          6           0        3.781800    1.147654   -1.176198
      7          1           0        3.751332    2.179460   -1.567876
      8          6           0        5.032636    0.510285   -1.807279
      9          1           0        5.119732   -0.535471   -1.477593
     10          6           0        4.914447    0.554741   -3.356521
     11          1           0        4.949834    1.623163   -3.626272
     12          6           0        1.433332    1.402895   -0.773978
     13          1           0        1.391183    2.375855   -1.289443
     14          6           0        2.334963    0.653503   -3.136933
     15          1           0        2.282281    1.722117   -3.390992
     16          1           0        1.423609    0.195011   -3.533537
     17          6           0        6.133729   -0.104161   -4.091107
     18          6           0        3.675682    1.261517    0.352524
     19          1           0        4.354810    2.011420    0.764510
     20          1           0        3.945466    0.313356    0.829625
     21          6           0        3.548348    0.019008   -3.842961
     22          1           0        3.505891   -1.066846   -3.704884
     23          1           0        3.449835    0.189633   -4.920750
     24          6           0        2.181400    1.608457    0.588365
     25          1           0        1.747112    0.967073    1.364492
     26          1           0        2.070319    2.637279    0.944053
     27          6           0        6.316517    1.232772   -1.354734
     28          1           0        6.118099    2.312875   -1.304938
     29          6           0       -0.032022    0.936426   -0.576196
     30          1           0        0.000000    0.000000    0.000000
     31          6           0        2.309436   -0.966210   -1.178418
     32          1           0        3.125122   -1.577237   -1.573756
     33          1           0        2.319553   -1.080551   -0.090515
     34          1           0        1.374185   -1.403156   -1.543222
     35          6           0        7.444377    0.370878   -3.454420
     36          6           0        6.123432    0.353265   -5.583510
     37          1           0        5.965974    1.440407   -5.608245
     38          1           0        5.266767   -0.096109   -6.096754
     39          6           0        7.487833    0.987082   -2.264086
     40          1           0        8.444376    1.333636   -1.872940
     41          6           0        6.077785   -1.653940   -4.023444
     42          1           0        5.249473   -2.049534   -4.619230
     43          1           0        6.995626   -2.106463   -4.407780
     44          1           0        5.954272   -2.001637   -2.993192
     45          6           0        8.722194    0.126938   -4.235128
     46          1           0        9.570696    0.599291   -3.730504
     47          1           0        8.936451   -0.953587   -4.269823
     48          6           0        7.404617    0.034233   -6.369445
     49          1           0        7.537670   -1.053793   -6.463714
     50          1           0        7.326426    0.429599   -7.388573
     51          6           0       -0.834929    1.975736    0.267092
     52          1           0       -0.149465    2.710179    0.702191
     53          1           0       -1.488994    2.551627   -0.401504
     54          6           0        8.634647    0.628624   -5.684135
     55          1           0        8.549651    1.722141   -5.677781
     56          6           0       -0.769309    0.648980   -1.897085
     57          1           0       -0.728489    1.518868   -2.564486
     58          1           0       -1.825106    0.428377   -1.712481
     59          1           0       -0.349468   -0.204744   -2.434989
     60          6           0       -1.659805    1.385794    1.429639
     61          1           0       -0.975867    0.825854    2.082329
     62          1           0       -2.039248    2.213290    2.042870
     63          6           0       -2.828333    0.455518    1.053579
     64          1           0       -3.217585    0.000843    1.976668
     65          1           0       -2.446028   -0.380272    0.451919
     66          6           0       -4.014633    1.102183    0.306315
     67          1           0       -3.629617    1.592493   -0.599182
     68          6           0       -4.726465    2.172658    1.149500
     69          1           0       -5.118341    1.738801    2.078750
     70          1           0       -5.572741    2.602412    0.601554
     71          1           0       -4.059443    2.996749    1.421816
     72          6           0       -5.012238    0.021870   -0.141966
     73          1           0       -5.431336   -0.506196    0.724266
     74          1           0       -5.848059    0.458090   -0.700837
     75          1           0       -4.531964   -0.724789   -0.784959
 ---------------------------------------------------------------------

 SCF Done:  E(RHF) =  -1198.92228066     A.U. after    9 cycles

 Alpha  occ. eigenvalues --  -20.55904 -20.55577 -11.28028 -11.27896 -11.24892
 Alpha  occ. eigenvalues --  -11.24102 -11.23196 -11.22928 -11.22905 -11.22733
 Alpha  occ. eigenvalues --  -11.22576 -11.22524 -11.22399 -11.22274 -11.22257
 Alpha  occ. eigenvalues --  -11.22256 -11.21976 -11.21942 -11.21681 -11.21577
 Alpha  occ. eigenvalues --  -11.21567 -11.21432 -11.21239 -11.21055 -11.21042
 Alpha  occ. eigenvalues --  -11.20990 -11.20978 -11.20910 -11.20461  -1.35277
 Alpha  occ. eigenvalues --   -1.34766  -1.16065  -1.13860  -1.09629  -1.08043
 Alpha  occ. eigenvalues --   -1.05902  -1.05567  -1.03064  -1.01667  -0.99532
 Alpha  occ. eigenvalues --   -0.97921  -0.96257  -0.92878  -0.92403  -0.92286
 Alpha  occ. eigenvalues --   -0.91218  -0.90590  -0.86186  -0.83946  -0.82806
 Alpha  occ. eigenvalues --   -0.82248  -0.79367  -0.78615  -0.77083  -0.75152
 Alpha  occ. eigenvalues --   -0.73683  -0.72136  -0.69957  -0.67272  -0.66515
 Alpha  occ. eigenvalues --   -0.64434  -0.64065  -0.63856  -0.63396  -0.62548
 Alpha  occ. eigenvalues --   -0.61545  -0.61158  -0.60795  -0.60535  -0.59341
 Alpha  occ. eigenvalues --   -0.58736  -0.58403  -0.57610  -0.56602  -0.56380
 Alpha  occ. eigenvalues --   -0.56051  -0.55736  -0.55483  -0.54914  -0.54267
 Alpha  occ. eigenvalues --   -0.54101  -0.53969  -0.53238  -0.53011  -0.52865
 Alpha  occ. eigenvalues --   -0.52533  -0.52123  -0.50946  -0.50623  -0.50029
 Alpha  occ. eigenvalues --   -0.49143  -0.48522  -0.48047  -0.47958  -0.47232
 Alpha  occ. eigenvalues --   -0.46896  -0.46733  -0.46277  -0.46000  -0.45359
 Alpha  occ. eigenvalues --   -0.44955  -0.44769  -0.43900  -0.43663  -0.43268
 Alpha  occ. eigenvalues --   -0.43015  -0.42612  -0.42516  -0.41629  -0.40371
 Alpha  occ. eigenvalues --   -0.38444  -0.34021
 Alpha virt. eigenvalues --    0.16198   0.20845   0.21146   0.21907   0.22305
 Alpha virt. eigenvalues --    0.23033   0.23510   0.24617   0.24895   0.25640
 Alpha virt. eigenvalues --    0.25913   0.26203   0.26791   0.26882   0.27211

 Mulliken charges:
               1
     1  O   -0.763853
     2  H    0.429092
     3  O   -0.758983
     4  H    0.428118
     5  C   -0.030230
     6  C   -0.167480
     7  H    0.150093
     8  C   -0.167359
     9  H    0.154380
    10  C   -0.166961
    11  H    0.159312
    12  C   -0.143613
    13  H    0.152319
    14  C   -0.297789
    15  H    0.152285
    16  H    0.165087
    17  C   -0.040656
    18  C   -0.298799
    19  H    0.183909
    20  H    0.159225
    21  C   -0.327622
    22  H    0.163694
    23  H    0.166860
    24  C   -0.338260
    25  H    0.159488
    26  H    0.165599
    27  C    0.184419
    28  H    0.176620
    29  C   -0.136992
    30  H    0.157527
    31  C   -0.488248
    32  H    0.159660
    33  H    0.167568
    34  H    0.162461
    35  C    0.074579
    36  C   -0.326064
    37  H    0.166499
    38  H    0.173000
    39  C   -0.290848
    40  H    0.193982
    41  C   -0.477639
    42  H    0.167276
    43  H    0.162543
    44  H    0.164613
    45  C   -0.366018
    46  H    0.193898
    47  H    0.152396
    48  C   -0.340775
    49  H    0.144090
    50  H    0.183664
    51  C   -0.324696
    52  H    0.167659
    53  H    0.158213
    54  C    0.193755
    55  H    0.174223
    56  C   -0.490821
    57  H    0.153793
    58  H    0.166306
    59  H    0.158331
    60  C   -0.312945
    61  H    0.155899
    62  H    0.157083
    63  C   -0.305215
    64  H    0.151434
    65  H    0.155901
    66  C   -0.152570
    67  H    0.155618
    68  C   -0.475679
    69  H    0.152025
    70  H    0.158148
    71  H    0.162135
    72  C   -0.472665
    73  H    0.152899
    74  H    0.158186
    75  H    0.156916
 Sum of Mulliken charges =   0.00000

 Dipole moment (field-independent basis, Debye):
    X=             -1.0590    Y=             -2.2117    Z=             -0.9473  Tot=              2.6288
 Quadrupole moment (field-independent basis, Debye-Ang):
   XX=           -207.8670   YY=           -184.0067   ZZ=           -190.4495
   XY=            -21.2605   XZ=              3.7352   YZ=              7.1459

 ESP charges:
               1
     1  O   -0.767285
     2  H    0.414867
     3  O   -0.740214
     4  H    0.407940
     5  C    0.576777
     6  C    0.149707
     7  H   -0.059582
     8  C   -0.115908
     9  H   -0.008724
    10  C   -0.116469
    11  H   -0.040409
    12  C   -0.161727
    13  H   -0.023612
    14  C   -0.234547
    15  H    0.016917
    16  H    0.018295
    17  C    0.408107
    18  C   -0.181155
    19  H    0.060406
    20  H    0.017684
    21  C    0.172401
    22  H   -0.040851
    23  H   -0.037491
    24  C   -0.025860
    25  H    0.007923
    26  H    0.020127
    27  C    0.696083
    28  H   -0.033903
    29  C    0.341477
    30  H   -0.035519
    31  C   -0.517888
    32  H    0.109066
    33  H    0.101641
    34  H    0.085407
    35  C   -0.055946
    36  C   -0.130963
    37  H    0.013884
    38  H    0.046840
    39  C   -0.549261
    40  H    0.188620
    41  C   -0.193797
    42  H    0.020583
    43  H    0.042972
    44  H    0.023062
    45  C   -0.086379
    46  H    0.040905
    47  H    0.020442
    48  C   -0.161213
    49  H    0.019230
    50  H    0.050463
    51  C   -0.077194
    52  H    0.008550
    53  H    0.007951
    54  C    0.475750
    55  H    0.005692
    56  C   -0.374708
    57  H    0.065707
    58  H    0.077902
    59  H    0.077158
    60  C   -0.082171
    61  H    0.010630
    62  H    0.019314
    63  C    0.006347
    64  H   -0.017221
    65  H   -0.030179
    66  C    0.454953
    67  H   -0.079528
    68  C   -0.334729
    69  H    0.064329
    70  H    0.062199
    71  H    0.064141
    72  C   -0.369282
    73  H    0.070924
    74  H    0.076867
    75  H    0.063477
 Sum of ESP charges =   0.00000

 Normal termination of Gaussian 09 at Wed May 17 11:47:37 2017.
