 Gaussian 09, Revision D.01,
 Gaussian 09:  EM64L-G09RevD.01 24-Apr-2013

 ----------------------------------------------------------------------
 #P HF/6-31G* SCF(Conver=6) NoSymm Test Pop=chelpg IOp(6/33=2) GFInput
 GFPrint
 ----------------------------------------------------------------------

 ----------------------------------------------
 MEP - Input generated by R.E.D.-III.x MOLECULE
 ----------------------------------------------
 Symbolic Z-matrix:
 Charge =  0 Multiplicity = 1

                          Input orientation:
 ---------------------------------------------------------------------
 Center     Atomic      Atomic             Coordinates (Angstroms)
 Number     Number       Type             X           Y           Z
 ---------------------------------------------------------------------
      1          8           0        6.120049    3.725343    0.000000
      2          1           0        5.852222    3.738464   -0.929736
      3          8           0        0.000000    0.000000    0.000000
      4          1           0       -0.112055   -0.163647   -0.947009
      5          6           0        8.829075    0.074762    0.411534
      6          6           0        7.903235    1.267020    0.792102
      7          1           0        7.682732    1.123916    1.864399
      8          6           0        6.531159    1.284818    0.094625
      9          1           0        6.670327    1.402159   -0.990200
     10          6           0        5.786004   -0.049313    0.377930
     11          1           0        5.576190   -0.048005    1.460293
     12          6           0       10.084345    0.409301    1.291647
     13          1           0        9.805444    0.152027    2.326082
     14          6           0        8.065487   -1.212829    0.780485
     15          1           0        7.937760   -1.244929    1.872229
     16          1           0        8.626848   -2.111781    0.507573
     17          6           0        4.384718   -0.138028   -0.321227
     18          6           0        8.818199    2.497758    0.699614
     19          1           0        8.449464    3.338204    1.292072
     20          1           0        8.877961    2.857780   -0.332962
     21          6           0        6.684134   -1.276503    0.101352
     22          1           0        6.829586   -1.393229   -0.978080
     23          1           0        6.175343   -2.186983    0.436929
     24          6           0       10.191238    1.969321    1.193759
     25          1           0       10.991581    2.254637    0.500240
     26          1           0       10.455970    2.403232    2.162838
     27          6           0        5.678392    2.477194    0.570390
     28          1           0        5.838709    2.621517    1.648321
     29          6           0       11.434677   -0.299009    1.006800
     30          1           0       11.764807    0.000000    0.000000
     31          6           0        9.206925    0.079091   -1.087586
     32          1           0        8.328801    0.058003   -1.738321
     33          1           0        9.788170    0.965167   -1.359207
     34          1           0        9.813765   -0.797592   -1.336881
     35          6           0        3.617043    1.172625   -0.117264
     36          6           0        3.567370   -1.289676    0.343703
     37          1           0        3.651567   -1.185015    1.434212
     38          1           0        4.021013   -2.253195    0.088501
     39          6           0        4.209073    2.297845    0.309226
     40          1           0        3.609024    3.193770    0.468394
     41          6           0        4.516948   -0.408550   -1.843973
     42          1           0        4.900892   -1.414719   -2.038339
     43          1           0        3.552173   -0.328376   -2.351568
     44          1           0        5.190893    0.311844   -2.317632
     45          6           0        2.128466    1.156579   -0.410132
     46          1           0        1.676661    2.112984   -0.129268
     47          1           0        1.963952    1.035062   -1.493107
     48          6           0        2.075639   -1.322945   -0.023182
     49          1           0        1.947322   -1.538715   -1.094329
     50          1           0        1.574472   -2.131283    0.521298
     51          6           0       12.514539    0.191467    2.003848
     52          1           0       12.499712    1.286921    2.042563
     53          1           0       12.237299   -0.152040    3.011104
     54          6           0        1.397943    0.008022    0.301300
     55          1           0        1.437768    0.177306    1.384268
     56          6           0       11.338731   -1.834639    1.037761
     57          1           0       10.939304   -2.183280    1.998655
     58          1           0       12.321603   -2.295192    0.900872
     59          1           0       10.693127   -2.224564    0.247863
     60          6           0       13.953102   -0.244053    1.676386
     61          1           0       14.059475   -1.330523    1.774316
     62          1           0       14.155347   -0.017190    0.619873
     63          6           0       15.030749    0.454936    2.525927
     64          1           0       14.960884    1.539110    2.355931
     65          1           0       16.021464    0.153154    2.154617
     66          6           0       14.988606    0.197765    4.047446
     67          1           0       14.005687    0.516488    4.423064
     68          6           0       16.051495    1.050407    4.758774
     69          1           0       17.060718    0.774123    4.427013
     70          1           0       16.010298    0.913485    5.845427
     71          1           0       15.913364    2.117451    4.549631
     72          6           0       15.167705   -1.288220    4.396780
     73          1           0       16.128058   -1.663832    4.019956
     74          1           0       15.155719   -1.439019    5.482268
     75          1           0       14.375564   -1.911695    3.969604
 ---------------------------------------------------------------------

 SCF Done:  E(RHF) =  -1198.92754041     A.U. after    9 cycles

 Alpha  occ. eigenvalues --  -20.55903 -20.55575 -11.28028 -11.27895 -11.24888
 Alpha  occ. eigenvalues --  -11.24099 -11.23190 -11.22928 -11.22903 -11.22759
 Alpha  occ. eigenvalues --  -11.22575 -11.22524 -11.22323 -11.22310 -11.22273
 Alpha  occ. eigenvalues --  -11.22253 -11.21976 -11.21941 -11.21676 -11.21581
 Alpha  occ. eigenvalues --  -11.21480 -11.21424 -11.21246 -11.21039 -11.20973
 Alpha  occ. eigenvalues --  -11.20970 -11.20948 -11.20854 -11.20438  -1.35276
 Alpha  occ. eigenvalues --   -1.34764  -1.16066  -1.13866  -1.09669  -1.08096
 Alpha  occ. eigenvalues --   -1.05924  -1.05704  -1.03063  -1.01699  -0.99516
 Alpha  occ. eigenvalues --   -0.97932  -0.96245  -0.92872  -0.92327  -0.92292
 Alpha  occ. eigenvalues --   -0.90938  -0.90584  -0.86187  -0.84026  -0.82816
 Alpha  occ. eigenvalues --   -0.82469  -0.79176  -0.78541  -0.77033  -0.74941
 Alpha  occ. eigenvalues --   -0.73977  -0.72083  -0.69942  -0.67254  -0.66473
 Alpha  occ. eigenvalues --   -0.64818  -0.64092  -0.63949  -0.63459  -0.62469
 Alpha  occ. eigenvalues --   -0.61561  -0.61309  -0.60760  -0.60418  -0.59193
 Alpha  occ. eigenvalues --   -0.58733  -0.58144  -0.57675  -0.56905  -0.56336
 Alpha  occ. eigenvalues --   -0.56183  -0.55854  -0.55264  -0.54823  -0.54288
 Alpha  occ. eigenvalues --   -0.54106  -0.53851  -0.53166  -0.53014  -0.52887
 Alpha  occ. eigenvalues --   -0.52483  -0.52157  -0.51006  -0.50177  -0.49819
 Alpha  occ. eigenvalues --   -0.49107  -0.48424  -0.48106  -0.47762  -0.47398
 Alpha  occ. eigenvalues --   -0.47002  -0.46673  -0.46165  -0.45900  -0.45446
 Alpha  occ. eigenvalues --   -0.45068  -0.44726  -0.44374  -0.43506  -0.43407
 Alpha  occ. eigenvalues --   -0.43271  -0.42540  -0.42507  -0.41612  -0.40383
 Alpha  occ. eigenvalues --   -0.38462  -0.34019
 Alpha virt. eigenvalues --    0.16202   0.20909   0.21250   0.22057   0.22319
 Alpha virt. eigenvalues --    0.22958   0.24132   0.24615   0.24926   0.25752
 Alpha virt. eigenvalues --    0.25882   0.26152   0.26866   0.26955   0.27542

 Mulliken charges:
               1
     1  O   -0.763764
     2  H    0.429046
     3  O   -0.758979
     4  H    0.428112
     5  C   -0.029834
     6  C   -0.167673
     7  H    0.150103
     8  C   -0.167141
     9  H    0.154383
    10  C   -0.166979
    11  H    0.159325
    12  C   -0.135430
    13  H    0.151480
    14  C   -0.297966
    15  H    0.152343
    16  H    0.164800
    17  C   -0.040688
    18  C   -0.298298
    19  H    0.183430
    20  H    0.159319
    21  C   -0.327540
    22  H    0.163650
    23  H    0.166890
    24  C   -0.339927
    25  H    0.158300
    26  H    0.166391
    27  C    0.184176
    28  H    0.176688
    29  C   -0.148796
    30  H    0.152182
    31  C   -0.487518
    32  H    0.159443
    33  H    0.167589
    34  H    0.162593
    35  C    0.074514
    36  C   -0.326078
    37  H    0.166485
    38  H    0.172978
    39  C   -0.290643
    40  H    0.193976
    41  C   -0.477564
    42  H    0.167261
    43  H    0.162529
    44  H    0.164601
    45  C   -0.366023
    46  H    0.193903
    47  H    0.152397
    48  C   -0.340753
    49  H    0.144102
    50  H    0.183663
    51  C   -0.311889
    52  H    0.166443
    53  H    0.150899
    54  C    0.193749
    55  H    0.174226
    56  C   -0.485711
    57  H    0.152189
    58  H    0.164455
    59  H    0.161151
    60  C   -0.312925
    61  H    0.158328
    62  H    0.154146
    63  C   -0.298419
    64  H    0.151864
    65  H    0.150471
    66  C   -0.151852
    67  H    0.157304
    68  C   -0.471920
    69  H    0.152047
    70  H    0.157911
    71  H    0.157982
    72  C   -0.476750
    73  H    0.151792
    74  H    0.158178
    75  H    0.161271
 Sum of Mulliken charges =   0.00000

 Dipole moment (field-independent basis, Debye):
    X=              0.4454    Y=             -1.7890    Z=             -1.9892  Tot=              2.7121
 Quadrupole moment (field-independent basis, Debye-Ang):
   XX=           -197.1241   YY=           -193.9341   ZZ=           -181.3049
   XY=            -10.9870   XZ=             -4.8382   YZ=             -2.9331

 ESP charges:
               1
     1  O   -0.752614
     2  H    0.413382
     3  O   -0.739828
     4  H    0.408983
     5  C    0.646869
     6  C    0.052573
     7  H   -0.046646
     8  C   -0.035868
     9  H   -0.010424
    10  C   -0.123481
    11  H   -0.037655
    12  C   -0.146409
    13  H   -0.021626
    14  C   -0.257313
    15  H    0.020632
    16  H    0.021806
    17  C    0.404452
    18  C   -0.214611
    19  H    0.074142
    20  H    0.020163
    21  C    0.159949
    22  H   -0.041169
    23  H   -0.030455
    24  C    0.050206
    25  H   -0.002360
    26  H   -0.006089
    27  C    0.623677
    28  H   -0.014142
    29  C    0.166657
    30  H   -0.027921
    31  C   -0.489221
    32  H    0.092296
    33  H    0.096215
    34  H    0.082988
    35  C   -0.055620
    36  C   -0.105919
    37  H    0.005914
    38  H    0.038848
    39  C   -0.534041
    40  H    0.190255
    41  C   -0.186372
    42  H    0.018433
    43  H    0.040521
    44  H    0.020485
    45  C   -0.119160
    46  H    0.050987
    47  H    0.029156
    48  C   -0.163440
    49  H    0.019533
    50  H    0.049127
    51  C    0.049167
    52  H   -0.029832
    53  H    0.000627
    54  C    0.476648
    55  H    0.008663
    56  C   -0.323662
    57  H    0.061218
    58  H    0.066263
    59  H    0.072223
    60  C   -0.000363
    61  H    0.007794
    62  H   -0.003137
    63  C   -0.147112
    64  H    0.021497
    65  H    0.014504
    66  C    0.480176
    67  H   -0.099980
    68  C   -0.337645
    69  H    0.062711
    70  H    0.069971
    71  H    0.056812
    72  C   -0.323034
    73  H    0.061896
    74  H    0.059134
    75  H    0.059599
 Sum of ESP charges =   0.00000

 Normal termination of Gaussian 09 at Wed May 17 13:08:47 2017.
