 Gaussian 09, Revision D.01,
 Gaussian 09:  EM64L-G09RevD.01 24-Apr-2013

 ----------------------------------------------------------------------
 #P HF/6-31G* SCF(Conver=6) NoSymm Test Pop=chelpg IOp(6/33=2) GFInput
 GFPrint
 ----------------------------------------------------------------------

 ----------------------------------------------
 MEP - Input generated by R.E.D.-III.x MOLECULE
 ----------------------------------------------
 Symbolic Z-matrix:
 Charge =  0 Multiplicity = 1

                          Input orientation:
 ---------------------------------------------------------------------
 Center     Atomic      Atomic             Coordinates (Angstroms)
 Number     Number       Type             X           Y           Z
 ---------------------------------------------------------------------
      1          8           0        6.700596    0.902121    0.000000
      2          1           0        7.050588    0.000000    0.000000
      3          8           0        9.786879    0.332667   -6.441170
      4          1           0        9.912547   -0.624999   -6.498118
      5          6           0        2.426931    0.525992   -1.556220
      6          6           0        3.789734    1.153707   -1.143087
      7          1           0        3.758122    2.184201   -1.537786
      8          6           0        5.031088    0.510856   -1.786988
      9          1           0        5.118599   -0.534332   -1.455685
     10          6           0        4.896088    0.552734   -3.335076
     11          1           0        4.937366    1.620333   -3.607300
     12          6           0        1.451198    1.417054   -0.711654
     13          1           0        1.431635    2.394316   -1.216546
     14          6           0        2.318890    0.666881   -3.087058
     15          1           0        2.267585    1.735961   -3.339447
     16          1           0        1.400722    0.212293   -3.472650
     17          6           0        6.103108   -0.117217   -4.079850
     18          6           0        3.702718    1.273559    0.387409
     19          1           0        4.373147    2.039732    0.783627
     20          1           0        3.999628    0.334595    0.866390
     21          6           0        3.520997    0.027471   -3.808006
     22          1           0        3.472610   -1.058522   -3.673269
     23          1           0        3.412101    0.202455   -4.884091
     24          6           0        2.204586    1.589116    0.647726
     25          1           0        1.791101    0.908086    1.401181
     26          1           0        2.070009    2.600764    1.043738
     27          6           0        6.322603    1.230407   -1.351813
     28          1           0        6.128589    2.311427   -1.304264
     29          6           0       -0.019282    0.968061   -0.521797
     30          1           0        0.000000    0.000000    0.000000
     31          6           0        2.307307   -0.956137   -1.133783
     32          1           0        3.108713   -1.573223   -1.548421
     33          1           0        2.338799   -1.075367   -0.046756
     34          1           0        1.360129   -1.381866   -1.481704
     35          6           0        7.423131    0.355318   -3.460642
     36          6           0        6.077902    0.330529   -5.574916
     37          1           0        5.924572    1.418136   -5.605273
     38          1           0        5.213739   -0.118759   -6.075433
     39          6           0        7.482507    0.976585   -2.273571
     40          1           0        8.444782    1.321092   -1.894852
     41          6           0        6.039919   -1.666226   -4.001524
     42          1           0        5.202913   -2.061386   -4.585382
     43          1           0        6.951059   -2.125955   -4.393176
     44          1           0        5.926267   -2.006726   -2.967756
     45          6           0        8.691025    0.101986   -4.254357
     46          1           0        9.546849    0.574449   -3.762365
     47          1           0        8.901053   -0.979523   -4.284409
     48          6           0        7.348794    0.000820   -6.372988
     49          1           0        7.476244   -1.088397   -6.461284
     50          1           0        7.260832    0.389628   -7.393836
     51          6           0       -0.807623    1.925282    0.413847
     52          1           0       -1.805377    1.488628    0.567351
     53          1           0       -0.331188    1.932274    1.400509
     54          6           0        8.588867    0.594651   -5.705490
     55          1           0        8.508204    1.688514   -5.705259
     56          6           0       -0.783911    0.757073   -1.842396
     57          1           0       -0.704139    1.624304   -2.507164
     58          1           0       -1.849084    0.587685   -1.644715
     59          1           0       -0.415360   -0.112063   -2.393197
     60          6           0       -0.983696    3.371637   -0.079692
     61          1           0       -0.008264    3.869519   -0.143877
     62          1           0       -1.382278    3.362297   -1.101903
     63          6           0       -1.941336    4.215266    0.783644
     64          1           0       -2.924495    3.722596    0.792585
     65          1           0       -2.094670    5.187147    0.291211
     66          6           0       -1.516565    4.480696    2.243796
     67          1           0       -1.359937    3.512357    2.740129
     68          6           0       -2.641239    5.207513    2.998696
     69          1           0       -2.844875    6.187505    2.547996
     70          1           0       -2.373456    5.374322    4.048324
     71          1           0       -3.573712    4.631764    2.977645
     72          6           0       -0.205166    5.276812    2.336769
     73          1           0       -0.304961    6.249991    1.838430
     74          1           0        0.065367    5.465518    3.381893
     75          1           0        0.633067    4.748802    1.871018
 ---------------------------------------------------------------------

 SCF Done:  E(RHF) =  -1198.92678310     A.U. after    9 cycles

 Alpha  occ. eigenvalues --  -20.55905 -20.55580 -11.28029 -11.27899 -11.24896
 Alpha  occ. eigenvalues --  -11.24104 -11.23205 -11.22930 -11.22906 -11.22734
 Alpha  occ. eigenvalues --  -11.22578 -11.22530 -11.22308 -11.22278 -11.22275
 Alpha  occ. eigenvalues --  -11.22257 -11.21985 -11.21850 -11.21683 -11.21587
 Alpha  occ. eigenvalues --  -11.21433 -11.21360 -11.21277 -11.21052 -11.21008
 Alpha  occ. eigenvalues --  -11.20917 -11.20907 -11.20899 -11.20486  -1.35278
 Alpha  occ. eigenvalues --   -1.34770  -1.16078  -1.13891  -1.09615  -1.08046
 Alpha  occ. eigenvalues --   -1.05919  -1.05653  -1.03070  -1.01648  -0.99473
 Alpha  occ. eigenvalues --   -0.97910  -0.96274  -0.92879  -0.92301  -0.92244
 Alpha  occ. eigenvalues --   -0.90947  -0.90633  -0.86191  -0.84077  -0.82879
 Alpha  occ. eigenvalues --   -0.82813  -0.79209  -0.78546  -0.77011  -0.75417
 Alpha  occ. eigenvalues --   -0.73275  -0.71420  -0.69967  -0.67285  -0.66483
 Alpha  occ. eigenvalues --   -0.64650  -0.63958  -0.63855  -0.63297  -0.63113
 Alpha  occ. eigenvalues --   -0.62037  -0.61124  -0.60691  -0.60614  -0.58825
 Alpha  occ. eigenvalues --   -0.58750  -0.58220  -0.57627  -0.56573  -0.56274
 Alpha  occ. eigenvalues --   -0.56023  -0.55937  -0.55419  -0.54842  -0.54355
 Alpha  occ. eigenvalues --   -0.54039  -0.53605  -0.53198  -0.53104  -0.52959
 Alpha  occ. eigenvalues --   -0.52725  -0.52140  -0.50976  -0.50771  -0.50249
 Alpha  occ. eigenvalues --   -0.48639  -0.48446  -0.48050  -0.47947  -0.47572
 Alpha  occ. eigenvalues --   -0.46955  -0.46485  -0.46280  -0.45936  -0.45216
 Alpha  occ. eigenvalues --   -0.45104  -0.44746  -0.43830  -0.43748  -0.43465
 Alpha  occ. eigenvalues --   -0.42965  -0.42550  -0.42251  -0.41692  -0.40393
 Alpha  occ. eigenvalues --   -0.38541  -0.34022
 Alpha virt. eigenvalues --    0.16195   0.20308   0.20980   0.22110   0.22221
 Alpha virt. eigenvalues --    0.23054   0.23956   0.24091   0.24781   0.25291
 Alpha virt. eigenvalues --    0.25810   0.26328   0.26717   0.27096   0.27460

 Mulliken charges:
               1
     1  O   -0.763741
     2  H    0.429044
     3  O   -0.758987
     4  H    0.428115
     5  C   -0.028728
     6  C   -0.167109
     7  H    0.149940
     8  C   -0.167287
     9  H    0.154427
    10  C   -0.167104
    11  H    0.159374
    12  C   -0.141339
    13  H    0.157018
    14  C   -0.297901
    15  H    0.152190
    16  H    0.164895
    17  C   -0.040580
    18  C   -0.298264
    19  H    0.182843
    20  H    0.160140
    21  C   -0.327726
    22  H    0.163691
    23  H    0.167010
    24  C   -0.343109
    25  H    0.159048
    26  H    0.167820
    27  C    0.184444
    28  H    0.176646
    29  C   -0.147096
    30  H    0.156355
    31  C   -0.488491
    32  H    0.159878
    33  H    0.167557
    34  H    0.162263
    35  C    0.074451
    36  C   -0.326154
    37  H    0.166505
    38  H    0.173064
    39  C   -0.290765
    40  H    0.193999
    41  C   -0.477563
    42  H    0.167186
    43  H    0.162562
    44  H    0.164673
    45  C   -0.365966
    46  H    0.193925
    47  H    0.152402
    48  C   -0.340809
    49  H    0.144085
    50  H    0.183682
    51  C   -0.313248
    52  H    0.151206
    53  H    0.166168
    54  C    0.193748
    55  H    0.174228
    56  C   -0.486802
    57  H    0.157181
    58  H    0.157668
    59  H    0.160776
    60  C   -0.318612
    61  H    0.157896
    62  H    0.160108
    63  C   -0.297562
    64  H    0.150967
    65  H    0.150301
    66  C   -0.152316
    67  H    0.156999
    68  C   -0.471756
    69  H    0.151995
    70  H    0.158098
    71  H    0.157391
    72  C   -0.479342
    73  H    0.151716
    74  H    0.158894
    75  H    0.163783
 Sum of Mulliken charges =   0.00000

 Dipole moment (field-independent basis, Debye):
    X=             -1.1396    Y=             -2.4090    Z=             -0.9404  Tot=              2.8260
 Quadrupole moment (field-independent basis, Debye-Ang):
   XX=           -207.4681   YY=           -185.0058   ZZ=           -190.7812
   XY=            -20.4193   XZ=              4.0205   YZ=              6.7274

 ESP charges:
               1
     1  O   -0.757483
     2  H    0.414929
     3  O   -0.745147
     4  H    0.409120
     5  C    0.569411
     6  C    0.118486
     7  H   -0.046831
     8  C   -0.121948
     9  H    0.008271
    10  C   -0.139510
    11  H   -0.032017
    12  C   -0.053873
    13  H   -0.050319
    14  C   -0.237466
    15  H    0.014730
    16  H    0.017046
    17  C    0.444195
    18  C   -0.294947
    19  H    0.088895
    20  H    0.043406
    21  C    0.186937
    22  H   -0.047872
    23  H   -0.038898
    24  C    0.083352
    25  H   -0.009014
    26  H   -0.016089
    27  C    0.660361
    28  H   -0.019422
    29  C    0.198498
    30  H   -0.047266
    31  C   -0.463105
    32  H    0.089103
    33  H    0.086799
    34  H    0.081718
    35  C   -0.069619
    36  C   -0.145319
    37  H    0.014368
    38  H    0.048744
    39  C   -0.535327
    40  H    0.188106
    41  C   -0.204722
    42  H    0.022346
    43  H    0.044358
    44  H    0.026358
    45  C   -0.090328
    46  H    0.042321
    47  H    0.019456
    48  C   -0.156518
    49  H    0.016026
    50  H    0.049689
    51  C   -0.000565
    52  H   -0.008093
    53  H   -0.035663
    54  C    0.488922
    55  H    0.001890
    56  C   -0.332031
    57  H    0.059526
    58  H    0.074999
    59  H    0.069845
    60  C    0.061024
    61  H   -0.015217
    62  H   -0.001407
    63  C   -0.169002
    64  H    0.021231
    65  H    0.011050
    66  C    0.493385
    67  H   -0.096180
    68  C   -0.358703
    69  H    0.069968
    70  H    0.073321
    71  H    0.060221
    72  C   -0.290255
    73  H    0.052267
    74  H    0.046571
    75  H    0.058911
 Sum of ESP charges =   0.00000

 Normal termination of Gaussian 09 at Wed May 17 12:47:58 2017.
