 Gaussian 09, Revision D.01,
 Gaussian 09:  EM64L-G09RevD.01 24-Apr-2013

 ----------------------------------------------------------------------
 #P HF/6-31G* SCF(Conver=6) NoSymm Test Pop=chelpg IOp(6/33=2) GFInput
 GFPrint
 ----------------------------------------------------------------------

 ----------------------------------------------
 MEP - Input generated by R.E.D.-III.x MOLECULE
 ----------------------------------------------
 Symbolic Z-matrix:
 Charge =  0 Multiplicity = 1

                          Input orientation:
 ---------------------------------------------------------------------
 Center     Atomic      Atomic             Coordinates (Angstroms)
 Number     Number       Type             X           Y           Z
 ---------------------------------------------------------------------
      1          8           0        5.547822    4.537568    0.000000
      2          1           0        5.215569    4.602991   -0.906445
      3          8           0        0.000000    0.000000    0.000000
      4          1           0       -0.158274   -0.098473   -0.949431
      5          6           0        8.724247    1.278947   -0.148303
      6          6           0        7.696953    2.297439    0.412412
      7          1           0        7.580270    2.029466    1.476608
      8          6           0        6.285186    2.182273   -0.187114
      9          1           0        6.318538    2.412455   -1.262142
     10          6           0        5.753430    0.733033    0.017766
     11          1           0        5.624178    0.619442    1.106752
     12          6           0        9.981983    1.693531    0.677484
     13          1           0        9.742068    1.376639    1.703014
     14          6           0        8.193677   -0.131699    0.157184
     15          1           0        8.167550   -0.270922    1.247652
     16          1           0        8.863622   -0.905347   -0.241413
     17          6           0        4.328343    0.507597   -0.599364
     18          6           0        8.451028    3.642144    0.386038
     19          1           0        8.051358    4.353598    1.112458
     20          1           0        8.352925    4.122646   -0.593060
     21          6           0        6.779892   -0.342180   -0.418886
     22          1           0        6.845373   -0.370595   -1.511401
     23          1           0        6.422351   -1.331540   -0.113216
     24          6           0        9.933968    3.253167    0.674009
     25          1           0       10.593266    3.672314   -0.091480
     26          1           0       10.278841    3.657069    1.631686
     27          6           0        5.317775    3.191325    0.460438
     28          1           0        5.535762    3.251983    1.536258
     29          6           0       11.345663    1.018649    0.350561
     30          1           0       11.118055    0.000000    0.000000
     31          6           0        8.952774    1.444201   -1.667030
     32          1           0        8.036802    1.284883   -2.241900
     33          1           0        9.321390    2.441145   -1.923314
     34          1           0        9.687365    0.714709   -2.024853
     35          6           0        3.407622    1.675301   -0.226770
     36          6           0        3.724187   -0.799785    0.002552
     37          1           0        3.874148   -0.778115    1.090848
     38          1           0        4.282538   -1.664788   -0.370474
     39          6           0        3.871090    2.832065    0.268814
     40          1           0        3.168474    3.617112    0.548258
     41          6           0        4.382813    0.388884   -2.146256
     42          1           0        4.879771   -0.534699   -2.458572
     43          1           0        3.381222    0.378778   -2.584000
     44          1           0        4.919634    1.232882   -2.590010
     45          6           0        1.917577    1.474691   -0.429880
     46          1           0        1.362709    2.331023   -0.034261
     47          1           0        1.692401    1.422562   -1.507464
     48          6           0        2.227490   -1.010963   -0.273640
     49          1           0        2.051015   -1.151471   -1.350494
     50          1           0        1.881049   -1.924778    0.222297
     51          6           0       12.188990    1.703699   -0.753161
     52          1           0       11.536084    2.107574   -1.531388
     53          1           0       12.712793    2.568349   -0.320192
     54          6           0        1.402435    0.179291    0.214630
     55          1           0        1.498609    0.261075    1.304184
     56          6           0       12.175808    0.875345    1.642972
     57          1           0       12.367971    1.857892    2.091650
     58          1           0       13.145415    0.401978    1.457519
     59          1           0       11.649382    0.266886    2.386736
     60          6           0       13.221473    0.770204   -1.408365
     61          1           0       13.824872    0.286422   -0.630030
     62          1           0       12.693536   -0.044753   -1.922313
     63          6           0       14.188483    1.468229   -2.382203
     64          1           0       14.939676    0.736972   -2.716085
     65          1           0       14.743025    2.239096   -1.827767
     66          6           0       13.566778    2.122249   -3.634632
     67          1           0       12.820669    2.859381   -3.304973
     68          6           0       12.855566    1.101449   -4.537101
     69          1           0       13.557074    0.328968   -4.878389
     70          1           0       12.439739    1.588138   -5.426719
     71          1           0       12.030939    0.597891   -4.022293
     72          6           0       14.644009    2.881242   -4.426041
     73          1           0       15.421146    2.194666   -4.786024
     74          1           0       14.215604    3.385110   -5.300026
     75          1           0       15.133318    3.641672   -3.806629
 ---------------------------------------------------------------------

 SCF Done:  E(RHF) =  -1198.92498867     A.U. after    9 cycles

 Alpha  occ. eigenvalues --  -20.55914 -20.55591 -11.28038 -11.27893 -11.24935
 Alpha  occ. eigenvalues --  -11.24115 -11.23312 -11.22937 -11.22927 -11.22592
 Alpha  occ. eigenvalues --  -11.22571 -11.22524 -11.22428 -11.22348 -11.22295
 Alpha  occ. eigenvalues --  -11.22263 -11.22088 -11.21741 -11.21727 -11.21656
 Alpha  occ. eigenvalues --  -11.21554 -11.21495 -11.21208 -11.21091 -11.21091
 Alpha  occ. eigenvalues --  -11.21039 -11.20942 -11.20913 -11.20615  -1.35287
 Alpha  occ. eigenvalues --   -1.34780  -1.16117  -1.13930  -1.09649  -1.08092
 Alpha  occ. eigenvalues --   -1.05962  -1.05672  -1.03066  -1.01729  -0.99694
 Alpha  occ. eigenvalues --   -0.97944  -0.96198  -0.92674  -0.92429  -0.92066
 Alpha  occ. eigenvalues --   -0.91337  -0.90667  -0.86201  -0.83706  -0.82891
 Alpha  occ. eigenvalues --   -0.82696  -0.79812  -0.78531  -0.77353  -0.75033
 Alpha  occ. eigenvalues --   -0.73333  -0.71793  -0.69985  -0.67268  -0.66351
 Alpha  occ. eigenvalues --   -0.64469  -0.64025  -0.63719  -0.63438  -0.62704
 Alpha  occ. eigenvalues --   -0.62261  -0.61712  -0.60668  -0.60285  -0.59156
 Alpha  occ. eigenvalues --   -0.58891  -0.58400  -0.57773  -0.56980  -0.56465
 Alpha  occ. eigenvalues --   -0.56100  -0.55865  -0.55219  -0.54786  -0.54305
 Alpha  occ. eigenvalues --   -0.53709  -0.53626  -0.53270  -0.53107  -0.52839
 Alpha  occ. eigenvalues --   -0.52409  -0.52279  -0.51195  -0.51063  -0.49550
 Alpha  occ. eigenvalues --   -0.48955  -0.48479  -0.48324  -0.48028  -0.47288
 Alpha  occ. eigenvalues --   -0.46916  -0.46488  -0.46245  -0.45999  -0.45460
 Alpha  occ. eigenvalues --   -0.45161  -0.44765  -0.44748  -0.43958  -0.43484
 Alpha  occ. eigenvalues --   -0.42565  -0.42294  -0.42075  -0.41775  -0.40422
 Alpha  occ. eigenvalues --   -0.38670  -0.34031
 Alpha virt. eigenvalues --    0.16180   0.20189   0.21109   0.22038   0.22444
 Alpha virt. eigenvalues --    0.23165   0.23444   0.24161   0.24655   0.25169
 Alpha virt. eigenvalues --    0.25826   0.26401   0.26655   0.27258   0.27417

 Mulliken charges:
               1
     1  O   -0.763817
     2  H    0.429020
     3  O   -0.758953
     4  H    0.428130
     5  C   -0.032227
     6  C   -0.166541
     7  H    0.150107
     8  C   -0.167524
     9  H    0.154639
    10  C   -0.167583
    11  H    0.159612
    12  C   -0.148621
    13  H    0.155829
    14  C   -0.295834
    15  H    0.152890
    16  H    0.159061
    17  C   -0.040480
    18  C   -0.299410
    19  H    0.181476
    20  H    0.160232
    21  C   -0.328213
    22  H    0.164620
    23  H    0.167744
    24  C   -0.333810
    25  H    0.165653
    26  H    0.163575
    27  C    0.185623
    28  H    0.176581
    29  C   -0.143264
    30  H    0.156211
    31  C   -0.488645
    32  H    0.160954
    33  H    0.167267
    34  H    0.162392
    35  C    0.074347
    36  C   -0.326238
    37  H    0.166503
    38  H    0.173087
    39  C   -0.291063
    40  H    0.194093
    41  C   -0.477904
    42  H    0.167006
    43  H    0.162755
    44  H    0.165061
    45  C   -0.366073
    46  H    0.193950
    47  H    0.152399
    48  C   -0.340798
    49  H    0.144105
    50  H    0.183714
    51  C   -0.319110
    52  H    0.168598
    53  H    0.152376
    54  C    0.193784
    55  H    0.174254
    56  C   -0.482436
    57  H    0.156214
    58  H    0.160676
    59  H    0.157459
    60  C   -0.313646
    61  H    0.158276
    62  H    0.152168
    63  C   -0.297480
    64  H    0.150525
    65  H    0.152494
    66  C   -0.152422
    67  H    0.155892
    68  C   -0.476918
    69  H    0.152157
    70  H    0.157965
    71  H    0.160919
    72  C   -0.471719
    73  H    0.152233
    74  H    0.157832
    75  H    0.158270
 Sum of Mulliken charges =   0.00000

 Dipole moment (field-independent basis, Debye):
    X=              0.5082    Y=             -1.5837    Z=             -2.1030  Tot=              2.6812
 Quadrupole moment (field-independent basis, Debye-Ang):
   XX=           -194.4771   YY=           -195.8577   ZZ=           -182.4313
   XY=            -11.5284   XZ=             -2.2550   YZ=             -3.9632

 ESP charges:
               1
     1  O   -0.769276
     2  H    0.416147
     3  O   -0.744541
     4  H    0.409519
     5  C    0.653300
     6  C    0.041719
     7  H   -0.050671
     8  C   -0.048364
     9  H   -0.017670
    10  C   -0.117106
    11  H   -0.033996
    12  C   -0.104307
    13  H   -0.018317
    14  C   -0.319704
    15  H    0.028060
    16  H    0.033019
    17  C    0.268824
    18  C   -0.205689
    19  H    0.064389
    20  H    0.023452
    21  C    0.241393
    22  H   -0.054990
    23  H   -0.046387
    24  C    0.084429
    25  H   -0.034651
    26  H   -0.017652
    27  C    0.707052
    28  H   -0.029925
    29  C    0.188568
    30  H   -0.056060
    31  C   -0.573214
    32  H    0.116570
    33  H    0.117365
    34  H    0.100225
    35  C    0.044139
    36  C   -0.088348
    37  H    0.011622
    38  H    0.045257
    39  C   -0.597268
    40  H    0.196258
    41  C   -0.177272
    42  H    0.026541
    43  H    0.041344
    44  H    0.025367
    45  C   -0.162944
    46  H    0.057343
    47  H    0.037112
    48  C   -0.187071
    49  H    0.028731
    50  H    0.051637
    51  C    0.034403
    52  H    0.007009
    53  H   -0.019274
    54  C    0.510204
    55  H    0.000876
    56  C   -0.307896
    57  H    0.066337
    58  H    0.068409
    59  H    0.061892
    60  C   -0.006430
    61  H    0.013835
    62  H   -0.010966
    63  C   -0.141915
    64  H    0.016721
    65  H    0.016469
    66  C    0.469488
    67  H   -0.094047
    68  C   -0.305031
    69  H    0.061529
    70  H    0.053870
    71  H    0.053910
    72  C   -0.377561
    73  H    0.072904
    74  H    0.081562
    75  H    0.069746
 Sum of ESP charges =   0.00000

 Normal termination of Gaussian 09 at Wed May 17 12:08:12 2017.
