 Gaussian 09, Revision D.01,
 Gaussian 09:  EM64L-G09RevD.01 24-Apr-2013

 ----------------------------------------------------------------------
 #P HF/6-31G* SCF(Conver=6) NoSymm Test Pop=chelpg IOp(6/33=2) GFInput
 GFPrint
 ----------------------------------------------------------------------

 ----------------------------------------------
 MEP - Input generated by R.E.D.-III.x MOLECULE
 ----------------------------------------------
 Symbolic Z-matrix:
 Charge =  0 Multiplicity = 1

                          Input orientation:
 ---------------------------------------------------------------------
 Center     Atomic      Atomic             Coordinates (Angstroms)
 Number     Number       Type             X           Y           Z
 ---------------------------------------------------------------------
      1          8           0        0.000000    0.000000    0.000000
      2          1           0       -0.482791    0.001379    0.838588
      3          8           0       -3.252006    6.384061    0.000000
      4          1           0       -3.520131    6.452276    0.927157
      5          6           0        4.140469    1.652734    0.995671
      6          6           0        2.891750    1.192173    0.185021
      7          1           0        3.064133    1.561126   -0.840579
      8          6           0        1.556978    1.823854    0.618774
      9          1           0        1.311556    1.506864    1.642788
     10          6           0        1.672353    3.374283    0.571716
     11          1           0        1.789875    3.630206   -0.494273
     12          6           0        5.239972    0.817792    0.251235
     13          1           0        5.293421    1.274344   -0.746871
     14          6           0        4.239401    3.181660    0.843898
     15          1           0        4.437695    3.424150   -0.209568
     16          1           0        5.077857    3.586933    1.422636
     17          6           0        0.364692    4.105420    1.037287
     18          6           0        3.028303   -0.341199    0.125547
     19          1           0        2.489530   -0.772632   -0.721124
     20          1           0        2.601249   -0.800990    1.023088
     21          6           0        2.943421    3.884079    1.291138
     22          1           0        2.832512    3.761991    2.373879
     23          1           0        3.054541    4.960271    1.118630
     24          6           0        4.563400   -0.574733    0.048947
     25          1           0        4.885673   -1.287660    0.814988
     26          1           0        4.863814   -1.004645   -0.913136
     27          6           0        0.398846    1.355727   -0.283977
     28          1           0        0.756251    1.301515   -1.322165
     29          6           0        6.720991    0.710122    0.716372
     30          1           0        7.162245    0.000000    0.000000
     31          6           0        4.023569    1.272956    2.490443
     32          1           0        3.074635    1.600050    2.923409
     33          1           0        4.093470    0.194140    2.649530
     34          1           0        4.819952    1.744557    3.073396
     35          6           0       -0.858236    3.452670    0.383457
     36          6           0        0.430340    5.593033    0.568976
     37          1           0        0.743532    5.607901   -0.484104
     38          1           0        1.208815    6.118657    1.131871
     39          6           0       -0.802532    2.256779   -0.220920
     40          1           0       -1.695296    1.854341   -0.699558
     41          6           0        0.195430    4.054184    2.579403
     42          1           0        0.953781    4.660585    3.084100
     43          1           0       -0.780781    4.435630    2.889790
     44          1           0        0.273831    3.028645    2.953046
     45          6           0       -2.163872    4.223863    0.431341
     46          1           0       -2.930942    3.706953   -0.153559
     47          1           0       -2.532756    4.266600    1.469007
     48          6           0       -0.889355    6.370688    0.690391
     49          1           0       -1.178904    6.474510    1.746668
     50          1           0       -0.762222    7.386495    0.299224
     51          6           0        7.534989    2.021677    0.595144
     52          1           0        7.122221    2.767093    1.286806
     53          1           0        8.547877    1.814279    0.966270
     54          6           0       -2.015560    5.668772   -0.067874
     55          1           0       -1.773474    5.652662   -1.137535
     56          6           0        6.970575    0.097557    2.109541
     57          1           0        6.767073    0.809102    2.915218
     58          1           0        8.022568   -0.196996    2.197929
     59          1           0        6.367283   -0.796373    2.292268
     60          6           0        7.646171    2.660870   -0.802946
     61          1           0        6.655432    2.984428   -1.143531
     62          1           0        8.233059    3.583308   -0.705611
     63          6           0        8.264095    1.777471   -1.903907
     64          1           0        8.264700    2.350002   -2.843345
     65          1           0        7.611078    0.913003   -2.084595
     66          6           0        9.696712    1.260366   -1.654414
     67          1           0        9.694575    0.673828   -0.724224
     68          6           0       10.712690    2.401710   -1.488099
     69          1           0       10.736648    3.034696   -2.384799
     70          1           0       11.723282    2.006538   -1.334316
     71          1           0       10.477144    3.043957   -0.633350
     72          6           0       10.126107    0.318053   -2.790507
     73          1           0       10.153977    0.850089   -3.750180
     74          1           0       11.125663   -0.093763   -2.610226
     75          1           0        9.431049   -0.522779   -2.896893
 ---------------------------------------------------------------------

 SCF Done:  E(RHF) =  -1198.91971507     A.U. after    9 cycles

 Alpha  occ. eigenvalues --  -20.55909 -20.55581 -11.28033 -11.27901 -11.24909
 Alpha  occ. eigenvalues --  -11.24107 -11.23247 -11.22934 -11.22916 -11.22770
 Alpha  occ. eigenvalues --  -11.22582 -11.22539 -11.22438 -11.22423 -11.22279
 Alpha  occ. eigenvalues --  -11.22260 -11.22016 -11.21910 -11.21697 -11.21678
 Alpha  occ. eigenvalues --  -11.21569 -11.21481 -11.21427 -11.21044 -11.21034
 Alpha  occ. eigenvalues --  -11.20929 -11.20905 -11.20841 -11.20514  -1.35282
 Alpha  occ. eigenvalues --   -1.34774  -1.16070  -1.13846  -1.09692  -1.08013
 Alpha  occ. eigenvalues --   -1.05918  -1.05616  -1.03086  -1.01660  -0.99606
 Alpha  occ. eigenvalues --   -0.97890  -0.96327  -0.92596  -0.92469  -0.92358
 Alpha  occ. eigenvalues --   -0.91513  -0.90545  -0.86192  -0.84037  -0.82975
 Alpha  occ. eigenvalues --   -0.82701  -0.79319  -0.78698  -0.77051  -0.74916
 Alpha  occ. eigenvalues --   -0.73708  -0.71413  -0.69897  -0.67248  -0.66143
 Alpha  occ. eigenvalues --   -0.64826  -0.64139  -0.63838  -0.63424  -0.62612
 Alpha  occ. eigenvalues --   -0.62102  -0.61307  -0.60684  -0.59896  -0.59474
 Alpha  occ. eigenvalues --   -0.58716  -0.57918  -0.57885  -0.57532  -0.56766
 Alpha  occ. eigenvalues --   -0.56032  -0.55873  -0.55235  -0.55120  -0.54375
 Alpha  occ. eigenvalues --   -0.54257  -0.53686  -0.53167  -0.52850  -0.52783
 Alpha  occ. eigenvalues --   -0.52167  -0.51634  -0.50930  -0.50715  -0.50277
 Alpha  occ. eigenvalues --   -0.49267  -0.48672  -0.48359  -0.48060  -0.47351
 Alpha  occ. eigenvalues --   -0.46882  -0.46701  -0.46295  -0.46040  -0.45217
 Alpha  occ. eigenvalues --   -0.45096  -0.44493  -0.44297  -0.44165  -0.43401
 Alpha  occ. eigenvalues --   -0.42590  -0.42525  -0.41980  -0.41668  -0.40308
 Alpha  occ. eigenvalues --   -0.38465  -0.34024
 Alpha virt. eigenvalues --    0.16193   0.19832   0.20964   0.22090   0.22214
 Alpha virt. eigenvalues --    0.22983   0.23665   0.23954   0.24779   0.25181
 Alpha virt. eigenvalues --    0.25785   0.26138   0.26527   0.26756   0.27158

 Mulliken charges:
               1
     1  O   -0.763713
     2  H    0.429130
     3  O   -0.758945
     4  H    0.428125
     5  C   -0.022034
     6  C   -0.169814
     7  H    0.149960
     8  C   -0.167997
     9  H    0.154167
    10  C   -0.167015
    11  H    0.159154
    12  C   -0.155079
    13  H    0.159253
    14  C   -0.302080
    15  H    0.154061
    16  H    0.162723
    17  C   -0.040720
    18  C   -0.297718
    19  H    0.183222
    20  H    0.159503
    21  C   -0.327501
    22  H    0.165203
    23  H    0.167004
    24  C   -0.332756
    25  H    0.159068
    26  H    0.162217
    27  C    0.185378
    28  H    0.176517
    29  C   -0.146906
    30  H    0.157334
    31  C   -0.485325
    32  H    0.158845
    33  H    0.168673
    34  H    0.160813
    35  C    0.074556
    36  C   -0.326108
    37  H    0.166458
    38  H    0.172991
    39  C   -0.290953
    40  H    0.194048
    41  C   -0.477501
    42  H    0.167289
    43  H    0.162555
    44  H    0.164735
    45  C   -0.366045
    46  H    0.193923
    47  H    0.152422
    48  C   -0.340746
    49  H    0.144145
    50  H    0.183683
    51  C   -0.309186
    52  H    0.155334
    53  H    0.156155
    54  C    0.193742
    55  H    0.174231
    56  C   -0.481464
    57  H    0.155601
    58  H    0.157312
    59  H    0.161185
    60  C   -0.320057
    61  H    0.160848
    62  H    0.158556
    63  C   -0.303504
    64  H    0.151186
    65  H    0.155858
    66  C   -0.152058
    67  H    0.155616
    68  C   -0.476870
    69  H    0.152143
    70  H    0.158407
    71  H    0.161903
    72  C   -0.471643
    73  H    0.152584
    74  H    0.158199
    75  H    0.157724
 Sum of Mulliken charges =   0.00000

 Dipole moment (field-independent basis, Debye):
    X=              0.7828    Y=              1.0157    Z=              2.4100  Tot=              2.7299
 Quadrupole moment (field-independent basis, Debye-Ang):
   XX=           -190.4085   YY=           -190.0377   ZZ=           -182.5940
   XY=              8.5622   XZ=             -6.0509   YZ=              9.6687

 ESP charges:
               1
     1  O   -0.764947
     2  H    0.414214
     3  O   -0.743571
     4  H    0.407067
     5  C    0.485912
     6  C    0.084276
     7  H   -0.057640
     8  C   -0.060157
     9  H   -0.002956
    10  C   -0.134103
    11  H   -0.030531
    12  C   -0.048948
    13  H    0.000610
    14  C   -0.371016
    15  H    0.078479
    16  H    0.058557
    17  C    0.360536
    18  C   -0.073740
    19  H    0.043743
    20  H   -0.004304
    21  C    0.223150
    22  H   -0.033430
    23  H   -0.044613
    24  C   -0.105081
    25  H    0.023336
    26  H    0.013855
    27  C    0.658831
    28  H   -0.022759
    29  C    0.341887
    30  H   -0.054951
    31  C   -0.494841
    32  H    0.096807
    33  H    0.112660
    34  H    0.102370
    35  C   -0.062266
    36  C   -0.092319
    37  H    0.003050
    38  H    0.037460
    39  C   -0.533068
    40  H    0.187484
    41  C   -0.190993
    42  H    0.018316
    43  H    0.046073
    44  H    0.025736
    45  C   -0.058039
    46  H    0.031871
    47  H    0.010424
    48  C   -0.139013
    49  H    0.010665
    50  H    0.039871
    51  C   -0.206676
    52  H    0.028963
    53  H    0.044328
    54  C    0.484307
    55  H   -0.002724
    56  C   -0.385560
    57  H    0.069437
    58  H    0.079177
    59  H    0.082359
    60  C    0.036208
    61  H   -0.028935
    62  H    0.003247
    63  C   -0.072645
    64  H   -0.005054
    65  H   -0.004421
    66  C    0.466185
    67  H   -0.088435
    68  C   -0.319123
    69  H    0.060024
    70  H    0.057143
    71  H    0.059766
    72  C   -0.347556
    73  H    0.065670
    74  H    0.070805
    75  H    0.059556
 Sum of ESP charges =   0.00000

 Normal termination of Gaussian 09 at Wed May 17 12:33:52 2017.
