 Gaussian 09, Revision D.01,
 Gaussian 09:  EM64L-G09RevD.01 24-Apr-2013

 ----------------------------------------------------------------------
 #P HF/6-31G* SCF(Conver=6) NoSymm Test Pop=chelpg IOp(6/33=2) GFInput
 GFPrint
 ----------------------------------------------------------------------

 ----------------------------------------------
 MEP - Input generated by R.E.D.-III.x MOLECULE
 ----------------------------------------------
 Symbolic Z-matrix:
 Charge =  0 Multiplicity = 1

                          Input orientation:
 ---------------------------------------------------------------------
 Center     Atomic      Atomic             Coordinates (Angstroms)
 Number     Number       Type             X           Y           Z
 ---------------------------------------------------------------------
      1          8           0        7.130555    0.876721    0.000000
      2          1           0        7.540038    0.000000    0.000000
      3          8           0        8.688815   -0.148061   -6.920257
      4          1           0        8.870642   -1.098334   -6.929353
      5          6           0        2.673082    0.076464   -0.475885
      6          6           0        4.029401    0.829084   -0.437597
      7          1           0        3.825303    1.810548   -0.898990
      8          6           0        5.136525    0.202824   -1.302256
      9          1           0        5.384270   -0.798340   -0.920193
     10          6           0        4.640087    0.089138   -2.773963
     11          1           0        4.536415    1.127580   -3.129490
     12          6           0        1.842691    0.987721    0.481323
     13          1           0        1.722228    1.923042   -0.084628
     14          6           0        2.187150    0.068885   -1.934459
     15          1           0        1.986613    1.104284   -2.245902
     16          1           0        1.240329   -0.478109   -2.037020
     17          6           0        5.691980   -0.577689   -3.728660
     18          6           0        4.265806    1.097163    1.062605
     19          1           0        4.918016    1.957577    1.229948
     20          1           0        4.763704    0.243992    1.535084
     21          6           0        3.234668   -0.554707   -2.877301
     22          1           0        3.301718   -1.627494   -2.668741
     23          1           0        2.871029   -0.470614   -3.907263
     24          6           0        2.833014    1.302760    1.644898
     25          1           0        2.671744    0.638814    2.498793
     26          1           0        2.689351    2.322812    2.016573
     27          6           0        6.429626    1.038565   -1.248860
     28          1           0        6.163547    2.105215   -1.252336
     29          6           0        0.395094    0.556013    0.862049
     30          1           0        0.000000    0.000000    0.000000
     31          6           0        2.783988   -1.369362    0.056576
     32          1           0        3.485197   -1.971316   -0.527287
     33          1           0        3.123001   -1.401462    1.095625
     34          1           0        1.811687   -1.870431    0.008164
     35          6           0        7.079472    0.023849   -3.477764
     36          6           0        5.289648   -0.273557   -5.205940
     37          1           0        5.051298    0.796262   -5.283603
     38          1           0        4.370337   -0.815096   -5.452314
     39          6           0        7.363747    0.758602   -2.392463
     40          1           0        8.358450    1.190077   -2.280826
     41          6           0        5.768296   -2.113782   -3.517767
     42          1           0        4.854649   -2.609797   -3.859519
     43          1           0        6.600424   -2.554823   -4.072655
     44          1           0        5.917666   -2.362095   -2.462557
     45          6           0        8.146077   -0.233762   -4.525542
     46          1           0        9.054419    0.328321   -4.287511
     47          1           0        8.423578   -1.300357   -4.519915
     48          6           0        6.363957   -0.605117   -6.253296
     49          1           0        6.549233   -1.689140   -6.284709
     50          1           0        6.014150   -0.318199   -7.251471
     51          6           0        0.278382   -0.352513    2.110752
     52          1           0        1.082182   -1.096215    2.116969
     53          1           0        0.435410    0.267223    3.003824
     54          6           0        7.676171    0.115362   -5.945434
     55          1           0        7.516025    1.198451   -6.011168
     56          6           0       -0.489163    1.808675    1.032750
     57          1           0       -0.106100    2.448675    1.837494
     58          1           0       -1.523888    1.551454    1.280543
     59          1           0       -0.510268    2.405567    0.114184
     60          6           0       -1.062771   -1.099672    2.271283
     61          1           0       -1.087673   -1.523300    3.283094
     62          1           0       -1.894420   -0.386463    2.224910
     63          6           0       -1.281868   -2.228230    1.249224
     64          1           0       -0.430128   -2.921640    1.307632
     65          1           0       -1.264878   -1.811351    0.233392
     66          6           0       -2.584614   -3.049366    1.402477
     67          1           0       -2.562989   -3.799760    0.598194
     68          6           0       -3.848983   -2.199802    1.191550
     69          1           0       -3.979677   -1.463132    1.992507
     70          1           0       -4.744891   -2.831005    1.179614
     71          1           0       -3.810758   -1.656515    0.239972
     72          6           0       -2.651374   -3.818194    2.732615
     73          1           0       -2.745407   -3.140436    3.588785
     74          1           0       -3.518266   -4.488559    2.751021
     75          1           0       -1.753778   -4.428857    2.886054
 ---------------------------------------------------------------------

 SCF Done:  E(RHF) =  -1198.92275064     A.U. after    9 cycles

 Alpha  occ. eigenvalues --  -20.55901 -20.55565 -11.28023 -11.27866 -11.24913
 Alpha  occ. eigenvalues --  -11.24092 -11.23284 -11.22922 -11.22909 -11.22609
 Alpha  occ. eigenvalues --  -11.22576 -11.22537 -11.22469 -11.22276 -11.22257
 Alpha  occ. eigenvalues --  -11.22241 -11.22060 -11.21708 -11.21693 -11.21609
 Alpha  occ. eigenvalues --  -11.21558 -11.21456 -11.21289 -11.21092 -11.21068
 Alpha  occ. eigenvalues --  -11.20975 -11.20889 -11.20870 -11.20572  -1.35273
 Alpha  occ. eigenvalues --   -1.34755  -1.16083  -1.13891  -1.09586  -1.08034
 Alpha  occ. eigenvalues --   -1.05933  -1.05630  -1.03027  -1.01689  -0.99545
 Alpha  occ. eigenvalues --   -0.97893  -0.96145  -0.92614  -0.92447  -0.92029
 Alpha  occ. eigenvalues --   -0.91392  -0.90647  -0.86182  -0.84383  -0.83038
 Alpha  occ. eigenvalues --   -0.82857  -0.79444  -0.78421  -0.77330  -0.74650
 Alpha  occ. eigenvalues --   -0.72941  -0.71629  -0.69958  -0.67249  -0.66361
 Alpha  occ. eigenvalues --   -0.64390  -0.64143  -0.63641  -0.63201  -0.62775
 Alpha  occ. eigenvalues --   -0.62237  -0.61210  -0.60637  -0.60613  -0.59230
 Alpha  occ. eigenvalues --   -0.58927  -0.58498  -0.58110  -0.57501  -0.56268
 Alpha  occ. eigenvalues --   -0.56060  -0.55663  -0.55273  -0.54982  -0.54357
 Alpha  occ. eigenvalues --   -0.53944  -0.53507  -0.53316  -0.52945  -0.52578
 Alpha  occ. eigenvalues --   -0.52261  -0.52158  -0.51209  -0.50706  -0.49845
 Alpha  occ. eigenvalues --   -0.49003  -0.48544  -0.48262  -0.48004  -0.47704
 Alpha  occ. eigenvalues --   -0.46923  -0.46554  -0.46132  -0.45888  -0.45303
 Alpha  occ. eigenvalues --   -0.45056  -0.44903  -0.44504  -0.43589  -0.43391
 Alpha  occ. eigenvalues --   -0.42572  -0.42468  -0.42016  -0.41573  -0.40389
 Alpha  occ. eigenvalues --   -0.38610  -0.34008
 Alpha virt. eigenvalues --    0.16205   0.20756   0.21152   0.21842   0.22391
 Alpha virt. eigenvalues --    0.22942   0.23820   0.24163   0.24693   0.25291
 Alpha virt. eigenvalues --    0.25778   0.26346   0.26757   0.27089   0.27129

 Mulliken charges:
               1
     1  O   -0.763714
     2  H    0.428964
     3  O   -0.758984
     4  H    0.428102
     5  C   -0.031986
     6  C   -0.166538
     7  H    0.150000
     8  C   -0.167533
     9  H    0.154567
    10  C   -0.167617
    11  H    0.159516
    12  C   -0.147363
    13  H    0.155482
    14  C   -0.295804
    15  H    0.152598
    16  H    0.158201
    17  C   -0.040325
    18  C   -0.299121
    19  H    0.180887
    20  H    0.160523
    21  C   -0.327931
    22  H    0.164772
    23  H    0.167466
    24  C   -0.334220
    25  H    0.165912
    26  H    0.163273
    27  C    0.185615
    28  H    0.176587
    29  C   -0.148618
    30  H    0.161003
    31  C   -0.490356
    32  H    0.159665
    33  H    0.167177
    34  H    0.166064
    35  C    0.074210
    36  C   -0.326229
    37  H    0.166462
    38  H    0.173038
    39  C   -0.290901
    40  H    0.194019
    41  C   -0.477915
    42  H    0.166939
    43  H    0.162664
    44  H    0.165067
    45  C   -0.366034
    46  H    0.193926
    47  H    0.152301
    48  C   -0.340720
    49  H    0.144092
    50  H    0.183635
    51  C   -0.317620
    52  H    0.162636
    53  H    0.156806
    54  C    0.193761
    55  H    0.174234
    56  C   -0.482654
    57  H    0.155756
    58  H    0.160828
    59  H    0.157226
    60  C   -0.317446
    61  H    0.159915
    62  H    0.158250
    63  C   -0.305767
    64  H    0.150846
    65  H    0.153207
    66  C   -0.145368
    67  H    0.154511
    68  C   -0.476492
    69  H    0.156611
    70  H    0.158656
    71  H    0.156263
    72  C   -0.476705
    73  H    0.156752
    74  H    0.158403
    75  H    0.156574
 Sum of Mulliken charges =   0.00000

 Dipole moment (field-independent basis, Debye):
    X=             -1.1830    Y=             -2.5259    Z=             -0.4993  Tot=              2.8336
 Quadrupole moment (field-independent basis, Debye-Ang):
   XX=           -203.6165   YY=           -183.2995   ZZ=           -196.6063
   XY=            -20.7292   XZ=              5.7798   YZ=              8.1607

 ESP charges:
               1
     1  O   -0.763731
     2  H    0.412055
     3  O   -0.740266
     4  H    0.408904
     5  C    0.492304
     6  C    0.064477
     7  H   -0.039322
     8  C   -0.014464
     9  H   -0.029326
    10  C   -0.111030
    11  H   -0.042864
    12  C   -0.074291
    13  H   -0.018092
    14  C   -0.338519
    15  H    0.042509
    16  H    0.040057
    17  C    0.318566
    18  C   -0.250438
    19  H    0.075349
    20  H    0.033917
    21  C    0.244700
    22  H   -0.053089
    23  H   -0.044116
    24  C    0.099040
    25  H   -0.026032
    26  H   -0.021388
    27  C    0.689543
    28  H   -0.034498
    29  C    0.240092
    30  H   -0.035300
    31  C   -0.382534
    32  H    0.079177
    33  H    0.077594
    34  H    0.051381
    35  C   -0.010264
    36  C   -0.107501
    37  H    0.014465
    38  H    0.043878
    39  C   -0.560932
    40  H    0.189126
    41  C   -0.205596
    42  H    0.029548
    43  H    0.048364
    44  H    0.031742
    45  C   -0.123762
    46  H    0.050216
    47  H    0.029732
    48  C   -0.170571
    49  H    0.025841
    50  H    0.050828
    51  C   -0.015168
    52  H    0.005331
    53  H   -0.024198
    54  C    0.482357
    55  H    0.006716
    56  C   -0.371604
    57  H    0.080258
    58  H    0.084146
    59  H    0.070937
    60  C    0.059949
    61  H   -0.018288
    62  H   -0.010455
    63  C   -0.124055
    64  H    0.001138
    65  H    0.004349
    66  C    0.420262
    67  H   -0.087397
    68  C   -0.277543
    69  H    0.050973
    70  H    0.052565
    71  H    0.047514
    72  C   -0.276122
    73  H    0.053583
    74  H    0.050818
    75  H    0.048453
 Sum of ESP charges =   0.00000

 Normal termination of Gaussian 09 at Wed May 17 12:03:17 2017.
