 Gaussian 09, Revision D.01,
 Gaussian 09:  EM64L-G09RevD.01 24-Apr-2013

 ----------------------------------------------------------------------
 #P HF/6-31G* SCF(Conver=6) NoSymm Test Pop=chelpg IOp(6/33=2) GFInput
 GFPrint
 ----------------------------------------------------------------------

 ----------------------------------------------
 MEP - Input generated by R.E.D.-III.x MOLECULE
 ----------------------------------------------
 Symbolic Z-matrix:
 Charge =  0 Multiplicity = 1

                          Input orientation:
 ---------------------------------------------------------------------
 Center     Atomic      Atomic             Coordinates (Angstroms)
 Number     Number       Type             X           Y           Z
 ---------------------------------------------------------------------
      1          8           0        0.000000    0.000000    0.000000
      2          1           0       -0.234030    0.136713    0.928894
      3          8           0       -3.049183    6.483293    0.000000
      4          1           0       -3.054301    6.681095    0.947104
      5          6           0        4.273875    1.550694   -0.407425
      6          6           0        2.844129    1.068092   -0.790288
      7          1           0        2.740061    1.311780   -1.862047
      8          6           0        1.689438    1.808706   -0.091968
      9          1           0        1.740319    1.632099    0.992567
     10          6           0        1.803980    3.332892   -0.372727
     11          1           0        1.629506    3.449311   -1.455097
     12          6           0        5.136338    0.580741   -1.289136
     13          1           0        5.043783    0.949867   -2.323188
     14          6           0        4.347531    3.046817   -0.772959
     15          1           0        4.260306    3.146609   -1.864607
     16          1           0        5.311126    3.486573   -0.497641
     17          6           0        0.683510    4.178859    0.326483
     18          6           0        2.927507   -0.463425   -0.701424
     19          1           0        2.158209   -0.959110   -1.297949
     20          1           0        2.774756   -0.799351    0.329679
     21          6           0        3.229740    3.860470   -0.093427
     22          1           0        3.414061    3.875156    0.986280
     23          1           0        3.308307    4.901244   -0.426676
     24          6           0        4.365788   -0.779657   -1.191416
     25          1           0        4.873999   -1.456763   -0.494260
     26          1           0        4.351344   -1.289884   -2.159333
     27          6           0        0.320798    1.285007   -0.569429
     28          1           0        0.376060    1.076738   -1.647405
     29          6           0        6.654598    0.426699   -1.007627
     30          1           0        6.761787    0.000000    0.000000
     31          6           0        4.585872    1.335898    1.091412
     32          1           0        3.864699    1.836605    1.742787
     33          1           0        4.581978    0.275757    1.361425
     34          1           0        5.575491    1.732344    1.341474
     35          6           0       -0.679625    3.509673    0.119146
     36          6           0        0.638520    5.591540   -0.335953
     37          1           0        0.653624    5.459795   -1.426686
     38          1           0        1.547730    6.144538   -0.077559
     39          6           0       -0.806001    2.245087   -0.309139
     40          1           0       -1.800528    1.829311   -0.470748
     41          6           0        0.940832    4.328367    1.849966
     42          1           0        1.814895    4.956638    2.047174
     43          1           0        0.090625    4.791131    2.357884
     44          1           0        1.106483    3.354789    2.321390
     45          6           0       -1.912965    4.343930    0.410171
     46          1           0       -2.816747    3.795836    0.126459
     47          1           0       -1.985837    4.534783    1.493194
     48          6           0       -0.588238    6.441425    0.029616
     49          1           0       -0.578858    6.689955    1.101328
     50          1           0       -0.559007    7.393213   -0.512865
     51          6           0        7.271806   -0.576793   -2.015658
     52          1           0        6.686017   -1.501833   -2.004708
     53          1           0        7.153156   -0.160997   -3.027489
     54          6           0       -1.886877    5.705802   -0.299387
     55          1           0       -1.944237    5.544154   -1.382730
     56          6           0        7.421193    1.760037   -1.040864
     57          1           0        7.287586    2.266869   -2.005062
     58          1           0        8.494486    1.604708   -0.895983
     59          1           0        7.091882    2.444407   -0.256107
     60          6           0        8.757733   -0.938788   -1.818642
     61          1           0        9.043048   -1.629913   -2.622053
     62          1           0        9.381901   -0.049763   -1.970879
     63          6           0        9.129026   -1.557776   -0.457622
     64          1           0        8.937404   -0.824678    0.337766
     65          1           0       10.214974   -1.733673   -0.444202
     66          6           0        8.423388   -2.878182   -0.082204
     67          1           0        7.338062   -2.701979   -0.084496
     68          6           0        8.817095   -3.304210    1.341366
     69          1           0        9.895032   -3.500790    1.406501
     70          1           0        8.294141   -4.219086    1.642614
     71          1           0        8.576988   -2.524108    2.073071
     72          6           0        8.717793   -4.007126   -1.082878
     73          1           0        9.795895   -4.207254   -1.137434
     74          1           0        8.222770   -4.936892   -0.780301
     75          1           0        8.372500   -3.764786   -2.093077
 ---------------------------------------------------------------------

 SCF Done:  E(RHF) =  -1198.92599862     A.U. after    9 cycles

 Alpha  occ. eigenvalues --  -20.55905 -20.55578 -11.28029 -11.27898 -11.24893
 Alpha  occ. eigenvalues --  -11.24105 -11.23191 -11.22930 -11.22906 -11.22763
 Alpha  occ. eigenvalues --  -11.22578 -11.22527 -11.22379 -11.22279 -11.22266
 Alpha  occ. eigenvalues --  -11.22257 -11.21979 -11.21950 -11.21682 -11.21584
 Alpha  occ. eigenvalues --  -11.21486 -11.21412 -11.21281 -11.21062 -11.21014
 Alpha  occ. eigenvalues --  -11.20995 -11.20963 -11.20843 -11.20451  -1.35278
 Alpha  occ. eigenvalues --   -1.34766  -1.16071  -1.13874  -1.09729  -1.08042
 Alpha  occ. eigenvalues --   -1.05911  -1.05640  -1.03071  -1.01687  -0.99371
 Alpha  occ. eigenvalues --   -0.97938  -0.96235  -0.92909  -0.92390  -0.92289
 Alpha  occ. eigenvalues --   -0.91176  -0.90583  -0.86191  -0.84362  -0.82828
 Alpha  occ. eigenvalues --   -0.82655  -0.79008  -0.78425  -0.77043  -0.75111
 Alpha  occ. eigenvalues --   -0.73179  -0.72152  -0.69951  -0.67260  -0.66518
 Alpha  occ. eigenvalues --   -0.64620  -0.64082  -0.64000  -0.63279  -0.63124
 Alpha  occ. eigenvalues --   -0.62048  -0.61040  -0.60685  -0.60275  -0.58856
 Alpha  occ. eigenvalues --   -0.58658  -0.58533  -0.57624  -0.57174  -0.56130
 Alpha  occ. eigenvalues --   -0.56072  -0.55897  -0.55575  -0.54857  -0.54524
 Alpha  occ. eigenvalues --   -0.54144  -0.53467  -0.53219  -0.53030  -0.52780
 Alpha  occ. eigenvalues --   -0.52316  -0.51933  -0.51288  -0.50828  -0.49714
 Alpha  occ. eigenvalues --   -0.48845  -0.48448  -0.48020  -0.47977  -0.47426
 Alpha  occ. eigenvalues --   -0.46957  -0.46739  -0.46288  -0.46051  -0.45400
 Alpha  occ. eigenvalues --   -0.45060  -0.44750  -0.44046  -0.43739  -0.43417
 Alpha  occ. eigenvalues --   -0.43027  -0.42516  -0.42415  -0.41568  -0.40389
 Alpha  occ. eigenvalues --   -0.38487  -0.34023
 Alpha virt. eigenvalues --    0.16196   0.20371   0.21100   0.21758   0.22388
 Alpha virt. eigenvalues --    0.23145   0.23325   0.24609   0.24977   0.25502
 Alpha virt. eigenvalues --    0.25993   0.26191   0.26738   0.27202   0.27454

 Mulliken charges:
               1
     1  O   -0.763797
     2  H    0.429056
     3  O   -0.758979
     4  H    0.428117
     5  C   -0.029376
     6  C   -0.167947
     7  H    0.150285
     8  C   -0.166996
     9  H    0.154435
    10  C   -0.167051
    11  H    0.159374
    12  C   -0.134508
    13  H    0.151765
    14  C   -0.298023
    15  H    0.152488
    16  H    0.164728
    17  C   -0.040553
    18  C   -0.298193
    19  H    0.183393
    20  H    0.159615
    21  C   -0.327519
    22  H    0.163594
    23  H    0.166937
    24  C   -0.343683
    25  H    0.160240
    26  H    0.166990
    27  C    0.184156
    28  H    0.176718
    29  C   -0.154031
    30  H    0.156368
    31  C   -0.487539
    32  H    0.159603
    33  H    0.167347
    34  H    0.162186
    35  C    0.074490
    36  C   -0.326089
    37  H    0.166504
    38  H    0.172994
    39  C   -0.290756
    40  H    0.193982
    41  C   -0.477616
    42  H    0.167237
    43  H    0.162562
    44  H    0.164595
    45  C   -0.365987
    46  H    0.193913
    47  H    0.152378
    48  C   -0.340789
    49  H    0.144083
    50  H    0.183677
    51  C   -0.313828
    52  H    0.169795
    53  H    0.150601
    54  C    0.193754
    55  H    0.174230
    56  C   -0.485524
    57  H    0.152693
    58  H    0.164410
    59  H    0.160820
    60  C   -0.317593
    61  H    0.159507
    62  H    0.158480
    63  C   -0.302620
    64  H    0.154695
    65  H    0.150942
    66  C   -0.154860
    67  H    0.157977
    68  C   -0.471437
    69  H    0.152513
    70  H    0.158340
    71  H    0.156431
    72  C   -0.476780
    73  H    0.151923
    74  H    0.158678
    75  H    0.162473
 Sum of Mulliken charges =   0.00000

 Dipole moment (field-independent basis, Debye):
    X=              1.3766    Y=              1.2685    Z=              1.9070  Tot=              2.6722
 Quadrupole moment (field-independent basis, Debye-Ang):
   XX=           -193.5385   YY=           -188.6915   ZZ=           -181.4143
   XY=             10.9298   XZ=             -5.1118   YZ=              8.3884

 ESP charges:
               1
     1  O   -0.764485
     2  H    0.417076
     3  O   -0.743292
     4  H    0.409254
     5  C    0.585456
     6  C    0.172006
     7  H   -0.058240
     8  C   -0.192987
     9  H    0.017645
    10  C   -0.043506
    11  H   -0.047021
    12  C   -0.261946
    13  H    0.000324
    14  C   -0.226594
    15  H    0.012459
    16  H    0.024254
    17  C    0.349352
    18  C   -0.236100
    19  H    0.073125
    20  H    0.024727
    21  C    0.137284
    22  H   -0.036446
    23  H   -0.032949
    24  C    0.062792
    25  H    0.003073
    26  H   -0.007882
    27  C    0.700182
    28  H   -0.027834
    29  C    0.409147
    30  H   -0.077402
    31  C   -0.478691
    32  H    0.093517
    33  H    0.093676
    34  H    0.079852
    35  C   -0.011090
    36  C   -0.120513
    37  H    0.012975
    38  H    0.048344
    39  C   -0.571844
    40  H    0.193099
    41  C   -0.140602
    42  H    0.010329
    43  H    0.030034
    44  H    0.009460
    45  C   -0.127772
    46  H    0.049796
    47  H    0.029549
    48  C   -0.185669
    49  H    0.025949
    50  H    0.055450
    51  C    0.013718
    52  H   -0.032392
    53  H   -0.020479
    54  C    0.496760
    55  H    0.003822
    56  C   -0.381653
    57  H    0.059532
    58  H    0.084908
    59  H    0.072028
    60  C   -0.033796
    61  H   -0.002198
    62  H    0.003300
    63  C   -0.063209
    64  H   -0.018829
    65  H   -0.004761
    66  C    0.497563
    67  H   -0.113058
    68  C   -0.350126
    69  H    0.062116
    70  H    0.073036
    71  H    0.058468
    72  C   -0.317962
    73  H    0.056402
    74  H    0.053740
    75  H    0.065752
 Sum of ESP charges =   0.00000

 Normal termination of Gaussian 09 at Wed May 17 13:05:50 2017.
