 Gaussian 09, Revision D.01,
 Gaussian 09:  EM64L-G09RevD.01 24-Apr-2013

 ----------------------------------------------------------------------
 #P HF/6-31G* SCF(Conver=6) NoSymm Test Pop=chelpg IOp(6/33=2) GFInput
 GFPrint
 ----------------------------------------------------------------------

 ----------------------------------------------
 MEP - Input generated by R.E.D.-III.x MOLECULE
 ----------------------------------------------
 Symbolic Z-matrix:
 Charge =  0 Multiplicity = 1

                          Input orientation:
 ---------------------------------------------------------------------
 Center     Atomic      Atomic             Coordinates (Angstroms)
 Number     Number       Type             X           Y           Z
 ---------------------------------------------------------------------
      1          8           0        0.000000    0.000000    0.000000
      2          1           0       -0.484756    0.001058    0.837448
      3          8           0       -3.229279    6.395317    0.000000
      4          1           0       -3.499944    6.463968    0.926387
      5          6           0        4.143473    1.635184    1.011661
      6          6           0        2.895585    1.183466    0.194571
      7          1           0        3.072281    1.558661   -0.828062
      8          6           0        1.561357    1.816792    0.627816
      9          1           0        1.312522    1.496850    1.650151
     10          6           0        1.682165    3.366993    0.586788
     11          1           0        1.806583    3.626180   -0.477624
     12          6           0        5.242524    0.803093    0.264112
     13          1           0        5.302331    1.268074   -0.729450
     14          6           0        4.247328    3.164879    0.869591
     15          1           0        4.451472    3.413104   -0.181454
     16          1           0        5.083889    3.564097    1.455142
     17          6           0        0.375163    4.102166    1.047622
     18          6           0        3.028393   -0.349560    0.124856
     19          1           0        2.488124   -0.774559   -0.724159
     20          1           0        2.601048   -0.814237    1.019760
     21          6           0        2.951303    3.868203    1.315394
     22          1           0        2.834922    3.738112    2.396602
     23          1           0        3.066364    4.945334    1.151462
     24          6           0        4.562915   -0.585636    0.045447
     25          1           0        4.883180   -1.309232    0.802085
     26          1           0        4.862301   -1.003850   -0.922088
     27          6           0        0.404409    1.354961   -0.279611
     28          1           0        0.764887    1.301905   -1.316781
     29          6           0        6.721613    0.688342    0.734925
     30          1           0        7.170667    0.000000    0.000000
     31          6           0        4.022666    1.246178    2.503560
     32          1           0        3.076203    1.578294    2.938376
     33          1           0        4.083867    0.165722    2.655123
     34          1           0        4.822827    1.707338    3.089801
     35          6           0       -0.847499    3.454810    0.388111
     36          6           0        0.448124    5.589956    0.580846
     37          1           0        0.764950    5.604489   -0.471140
     38          1           0        1.226729    6.112160    1.146766
     39          6           0       -0.793984    2.259998   -0.218511
     40          1           0       -1.686540    1.861743   -0.701011
     41          6           0        0.199110    4.050277    2.588957
     42          1           0        0.958090    4.652760    3.097387
     43          1           0       -0.776652    4.436030    2.895509
     44          1           0        0.271383    3.024019    2.961943
     45          6           0       -2.150497    4.230568    0.432490
     46          1           0       -2.917368    3.717148   -0.155741
     47          1           0       -2.522885    4.273450    1.468881
     48          6           0       -0.869032    6.372566    0.698203
     49          1           0       -1.162034    6.476636    1.753509
     50          1           0       -0.736644    7.388189    0.308308
     51          6           0        7.538246    1.999271    0.639797
     52          1           0        7.117719    2.749748    1.322358
     53          1           0        8.546451    1.785587    1.023219
     54          6           0       -1.995242    5.675541   -0.064592
     55          1           0       -1.749720    5.659815   -1.133481
     56          6           0        6.963752    0.044956    2.115513
     57          1           0        6.759070    0.740309    2.934812
     58          1           0        8.014511   -0.254412    2.201637
     59          1           0        6.356983   -0.850482    2.277767
     60          6           0        7.686357    2.606686   -0.764031
     61          1           0        8.055675    1.829777   -1.447313
     62          1           0        6.706602    2.914076   -1.146157
     63          6           0        8.642298    3.810912   -0.777421
     64          1           0        9.619663    3.487659   -0.390862
     65          1           0        8.270027    4.562409   -0.065953
     66          6           0        8.865382    4.503520   -2.142070
     67          1           0        9.572223    5.324567   -1.950949
     68          6           0        7.581452    5.136426   -2.703970
     69          1           0        6.842895    4.375378   -2.981186
     70          1           0        7.797902    5.723442   -3.603855
     71          1           0        7.113757    5.806452   -1.972879
     72          6           0        9.521699    3.574881   -3.177239
     73          1           0        8.851508    2.758659   -3.470635
     74          1           0        9.781136    4.127342   -4.087560
     75          1           0       10.442322    3.127092   -2.784775
 ---------------------------------------------------------------------

 SCF Done:  E(RHF) =  -1198.92127110     A.U. after    9 cycles

 Alpha  occ. eigenvalues --  -20.55902 -20.55571 -11.28027 -11.27890 -11.24902
 Alpha  occ. eigenvalues --  -11.24097 -11.23238 -11.22925 -11.22910 -11.22749
 Alpha  occ. eigenvalues --  -11.22577 -11.22573 -11.22532 -11.22455 -11.22274
 Alpha  occ. eigenvalues --  -11.22250 -11.22015 -11.21871 -11.21685 -11.21681
 Alpha  occ. eigenvalues --  -11.21561 -11.21442 -11.21385 -11.21114 -11.21046
 Alpha  occ. eigenvalues --  -11.20899 -11.20890 -11.20797 -11.20493  -1.35275
 Alpha  occ. eigenvalues --   -1.34765  -1.16060  -1.13828  -1.09563  -1.08079
 Alpha  occ. eigenvalues --   -1.05932  -1.05730  -1.03077  -1.01704  -0.99691
 Alpha  occ. eigenvalues --   -0.97884  -0.96300  -0.92562  -0.92440  -0.92362
 Alpha  occ. eigenvalues --   -0.91514  -0.90382  -0.86185  -0.83875  -0.83050
 Alpha  occ. eigenvalues --   -0.82744  -0.79277  -0.78689  -0.76911  -0.74511
 Alpha  occ. eigenvalues --   -0.74156  -0.71647  -0.69910  -0.67243  -0.66184
 Alpha  occ. eigenvalues --   -0.64616  -0.64153  -0.63815  -0.63360  -0.62621
 Alpha  occ. eigenvalues --   -0.62451  -0.61255  -0.60695  -0.59824  -0.59350
 Alpha  occ. eigenvalues --   -0.59076  -0.58418  -0.57636  -0.57430  -0.56315
 Alpha  occ. eigenvalues --   -0.56047  -0.55669  -0.55452  -0.55113  -0.54358
 Alpha  occ. eigenvalues --   -0.54206  -0.53806  -0.53433  -0.52889  -0.52641
 Alpha  occ. eigenvalues --   -0.52179  -0.51566  -0.50702  -0.50392  -0.50196
 Alpha  occ. eigenvalues --   -0.49062  -0.48603  -0.48304  -0.47701  -0.47622
 Alpha  occ. eigenvalues --   -0.47110  -0.46663  -0.46291  -0.46081  -0.45251
 Alpha  occ. eigenvalues --   -0.45106  -0.44961  -0.44511  -0.44073  -0.43390
 Alpha  occ. eigenvalues --   -0.42670  -0.42495  -0.41884  -0.41555  -0.40319
 Alpha  occ. eigenvalues --   -0.38469  -0.34016
 Alpha virt. eigenvalues --    0.16203   0.20309   0.20936   0.21962   0.22274
 Alpha virt. eigenvalues --    0.22593   0.23988   0.24189   0.24859   0.24923
 Alpha virt. eigenvalues --    0.25485   0.26246   0.26543   0.27359   0.27701

 Mulliken charges:
               1
     1  O   -0.763682
     2  H    0.429112
     3  O   -0.758952
     4  H    0.428113
     5  C   -0.022679
     6  C   -0.169992
     7  H    0.149781
     8  C   -0.167738
     9  H    0.154149
    10  C   -0.167000
    11  H    0.159173
    12  C   -0.155751
    13  H    0.159437
    14  C   -0.301767
    15  H    0.153625
    16  H    0.162341
    17  C   -0.040756
    18  C   -0.297763
    19  H    0.183100
    20  H    0.159452
    21  C   -0.327438
    22  H    0.165228
    23  H    0.166799
    24  C   -0.332346
    25  H    0.159137
    26  H    0.162845
    27  C    0.185228
    28  H    0.176527
    29  C   -0.141435
    30  H    0.152492
    31  C   -0.485060
    32  H    0.158643
    33  H    0.168750
    34  H    0.160813
    35  C    0.074592
    36  C   -0.326058
    37  H    0.166540
    38  H    0.172875
    39  C   -0.290903
    40  H    0.194045
    41  C   -0.477512
    42  H    0.167288
    43  H    0.162540
    44  H    0.164717
    45  C   -0.366048
    46  H    0.193909
    47  H    0.152415
    48  C   -0.340739
    49  H    0.144105
    50  H    0.183681
    51  C   -0.300279
    52  H    0.152272
    53  H    0.152661
    54  C    0.193718
    55  H    0.174254
    56  C   -0.482686
    57  H    0.155838
    58  H    0.158092
    59  H    0.161205
    60  C   -0.319107
    61  H    0.154875
    62  H    0.161653
    63  C   -0.300592
    64  H    0.151693
    65  H    0.150374
    66  C   -0.146313
    67  H    0.155458
    68  C   -0.476325
    69  H    0.154825
    70  H    0.159024
    71  H    0.155961
    72  C   -0.476280
    73  H    0.156421
    74  H    0.158382
    75  H    0.157041
 Sum of Mulliken charges =   0.00000

 Dipole moment (field-independent basis, Debye):
    X=              0.8786    Y=              1.0419    Z=              2.3679  Tot=              2.7321
 Quadrupole moment (field-independent basis, Debye-Ang):
   XX=           -188.5556   YY=           -189.8386   ZZ=           -182.6142
   XY=              9.2518   XZ=             -6.8403   YZ=              9.9642

 ESP charges:
               1
     1  O   -0.772622
     2  H    0.416612
     3  O   -0.741460
     4  H    0.408352
     5  C    0.547811
     6  C    0.143806
     7  H   -0.066014
     8  C   -0.134778
     9  H   -0.001963
    10  C   -0.056611
    11  H   -0.051022
    12  C   -0.053986
    13  H   -0.029721
    14  C   -0.347489
    15  H    0.075659
    16  H    0.056529
    17  C    0.371632
    18  C   -0.069164
    19  H    0.039420
    20  H   -0.011465
    21  C    0.137128
    22  H   -0.019538
    23  H   -0.027978
    24  C   -0.122590
    25  H    0.032342
    26  H    0.018456
    27  C    0.701141
    28  H   -0.034708
    29  C    0.253923
    30  H   -0.026501
    31  C   -0.480311
    32  H    0.087663
    33  H    0.104585
    34  H    0.092817
    35  C   -0.054274
    36  C   -0.120847
    37  H    0.010300
    38  H    0.045478
    39  C   -0.553923
    40  H    0.189907
    41  C   -0.207557
    42  H    0.022917
    43  H    0.049960
    44  H    0.029179
    45  C   -0.056757
    46  H    0.033434
    47  H    0.010781
    48  C   -0.147285
    49  H    0.015370
    50  H    0.046127
    51  C   -0.306807
    52  H    0.052451
    53  H    0.075553
    54  C    0.469996
    55  H    0.003821
    56  C   -0.301295
    57  H    0.057313
    58  H    0.061100
    59  H    0.063849
    60  C    0.232664
    61  H   -0.032346
    62  H   -0.062625
    63  C   -0.179940
    64  H    0.009561
    65  H    0.015279
    66  C    0.432806
    67  H   -0.080877
    68  C   -0.301944
    69  H    0.059328
    70  H    0.058460
    71  H    0.053459
    72  C   -0.299999
    73  H    0.053668
    74  H    0.057944
    75  H    0.055813
 Sum of ESP charges =   0.00000

 Normal termination of Gaussian 09 at Wed May 17 12:25:29 2017.
