 Gaussian 09, Revision D.01,
 Gaussian 09:  EM64L-G09RevD.01 24-Apr-2013

 ----------------------------------------------------------------------
 #P HF/6-31G* SCF(Conver=6) NoSymm Test Pop=chelpg IOp(6/33=2) GFInput
 GFPrint
 ----------------------------------------------------------------------

 ----------------------------------------------
 MEP - Input generated by R.E.D.-III.x MOLECULE
 ----------------------------------------------
 Symbolic Z-matrix:
 Charge =  0 Multiplicity = 1

                          Input orientation:
 ---------------------------------------------------------------------
 Center     Atomic      Atomic             Coordinates (Angstroms)
 Number     Number       Type             X           Y           Z
 ---------------------------------------------------------------------
      1          8           0        6.119272    3.725742    0.000000
      2          1           0        5.852169    3.737926   -0.929950
      3          8           0        0.000000    0.000000    0.000000
      4          1           0       -0.111266   -0.166384   -0.946621
      5          6           0        8.828490    0.075613    0.415237
      6          6           0        7.903235    1.268890    0.793827
      7          1           0        7.683539    1.128555    1.866665
      8          6           0        6.530725    1.285221    0.097039
      9          1           0        6.669412    1.400980   -0.988020
     10          6           0        5.785674   -0.048446    0.382731
     11          1           0        5.574950   -0.044866    1.464923
     12          6           0       10.084888    0.411806    1.292981
     13          1           0        9.807435    0.157076    2.328414
     14          6           0        8.065115   -1.211046    0.787904
     15          1           0        7.937624   -1.240141    1.879769
     16          1           0        8.626537   -2.110612    0.517247
     17          6           0        4.384883   -0.138596   -0.317452
     18          6           0        8.818456    2.499153    0.697270
     19          1           0        8.450594    3.341095    1.288136
     20          1           0        8.876928    2.856720   -0.336233
     21          6           0        6.683686   -1.276416    0.109283
     22          1           0        6.829022   -1.395864   -0.969842
     23          1           0        6.174915   -2.186037    0.447283
     24          6           0       10.192002    1.971596    1.191059
     25          1           0       10.991765    2.254918    0.496034
     26          1           0       10.457506    2.407989    2.158764
     27          6           0        5.677657    2.477993    0.571269
     28          1           0        5.837472    2.623317    1.649146
     29          6           0       11.434229   -0.298409    1.007324
     30          1           0       11.763035    0.000000    0.000000
     31          6           0        9.204249    0.076656   -1.084518
     32          1           0        8.325076    0.057217   -1.733921
     33          1           0        9.787631    0.960623   -1.358461
     34          1           0        9.808233   -0.802055   -1.333380
     35          6           0        3.616996    1.172429   -0.116649
     36          6           0        3.567139   -1.288805    0.349406
     37          1           0        3.650615   -1.181836    1.439772
     38          1           0        4.020996   -2.252805    0.096554
     39          6           0        4.208526    2.298123    0.309281
     40          1           0        3.608257    3.194194    0.466818
     41          6           0        4.518679   -0.412296   -1.839546
     42          1           0        4.901630   -1.419314   -2.031547
     43          1           0        3.554819   -0.331956   -2.348907
     44          1           0        5.194343    0.306250   -2.313593
     45          6           0        2.128723    1.155980   -0.410701
     46          1           0        1.676749    2.112913   -0.131920
     47          1           0        1.964939    1.032570   -1.493569
     48          6           0        2.075749   -1.322841   -0.018566
     49          1           0        1.948375   -1.540795   -1.089386
     50          1           0        1.574080   -2.130021    0.527172
     51          6           0       12.515897    0.189879    2.003286
     52          1           0       12.479738    1.282977    2.070906
     53          1           0       12.264683   -0.184485    3.007796
     54          6           0        1.397707    0.008796    0.302437
     55          1           0        1.436649    0.180507    1.385039
     56          6           0       11.334937   -1.833976    1.039656
     57          1           0       10.924266   -2.179721    1.996758
     58          1           0       12.318309   -2.297096    0.915474
     59          1           0       10.697764   -2.224620    0.243168
     60          6           0       13.960746   -0.208675    1.659040
     61          1           0       14.062436   -1.299799    1.658532
     62          1           0       14.183886    0.124280    0.636195
     63          6           0       14.978068    0.398342    2.639192
     64          1           0       14.714529    0.081531    3.658790
     65          1           0       14.869749    1.492518    2.625576
     66          6           0       16.466177    0.055180    2.394762
     67          1           0       17.028934    0.580000    3.181002
     68          6           0       16.981322    0.580375    1.044460
     69          1           0       16.512562    0.058574    0.202159
     70          1           0       18.064091    0.434703    0.956828
     71          1           0       16.778109    1.651597    0.929141
     72          6           0       16.763489   -1.445206    2.553697
     73          1           0       16.287440   -2.038152    1.764212
     74          1           0       17.841324   -1.636688    2.500080
     75          1           0       16.404887   -1.823145    3.518411
 ---------------------------------------------------------------------

 SCF Done:  E(RHF) =  -1198.92738715     A.U. after    9 cycles

 Alpha  occ. eigenvalues --  -20.55895 -20.55562 -11.28018 -11.27882 -11.24877
 Alpha  occ. eigenvalues --  -11.24087 -11.23177 -11.22918 -11.22892 -11.22736
 Alpha  occ. eigenvalues --  -11.22566 -11.22510 -11.22459 -11.22277 -11.22264
 Alpha  occ. eigenvalues --  -11.22241 -11.21959 -11.21918 -11.21656 -11.21558
 Alpha  occ. eigenvalues --  -11.21439 -11.21340 -11.21240 -11.21023 -11.20982
 Alpha  occ. eigenvalues --  -11.20961 -11.20949 -11.20824 -11.20418  -1.35267
 Alpha  occ. eigenvalues --   -1.34752  -1.16050  -1.13847  -1.09581  -1.08075
 Alpha  occ. eigenvalues --   -1.05922  -1.05715  -1.03047  -1.01702  -0.99501
 Alpha  occ. eigenvalues --   -0.97910  -0.96230  -0.92847  -0.92334  -0.92273
 Alpha  occ. eigenvalues --   -0.90888  -0.90572  -0.86174  -0.84298  -0.82807
 Alpha  occ. eigenvalues --   -0.82664  -0.78964  -0.78346  -0.76974  -0.74621
 Alpha  occ. eigenvalues --   -0.74067  -0.72004  -0.69934  -0.67248  -0.66463
 Alpha  occ. eigenvalues --   -0.64655  -0.64035  -0.63808  -0.63346  -0.62503
 Alpha  occ. eigenvalues --   -0.62255  -0.61219  -0.60746  -0.60233  -0.59252
 Alpha  occ. eigenvalues --   -0.58665  -0.58399  -0.57915  -0.57497  -0.56314
 Alpha  occ. eigenvalues --   -0.56062  -0.55575  -0.55439  -0.54795  -0.54504
 Alpha  occ. eigenvalues --   -0.54136  -0.53336  -0.53158  -0.52847  -0.52495
 Alpha  occ. eigenvalues --   -0.52205  -0.51539  -0.50895  -0.50778  -0.50611
 Alpha  occ. eigenvalues --   -0.48619  -0.48288  -0.48097  -0.48010  -0.47152
 Alpha  occ. eigenvalues --   -0.46977  -0.46495  -0.46013  -0.45922  -0.45376
 Alpha  occ. eigenvalues --   -0.44973  -0.44823  -0.44534  -0.43955  -0.43431
 Alpha  occ. eigenvalues --   -0.43306  -0.42508  -0.42346  -0.41517  -0.40347
 Alpha  occ. eigenvalues --   -0.38405  -0.34007
 Alpha virt. eigenvalues --    0.16215   0.20936   0.21338   0.21975   0.22309
 Alpha virt. eigenvalues --    0.22807   0.24239   0.24650   0.24949   0.25768
 Alpha virt. eigenvalues --    0.25826   0.26198   0.26646   0.26803   0.27539

 Mulliken charges:
               1
     1  O   -0.763774
     2  H    0.429033
     3  O   -0.758995
     4  H    0.428102
     5  C   -0.029777
     6  C   -0.167541
     7  H    0.150149
     8  C   -0.167313
     9  H    0.154323
    10  C   -0.166996
    11  H    0.159346
    12  C   -0.135696
    13  H    0.151759
    14  C   -0.297910
    15  H    0.152318
    16  H    0.164893
    17  C   -0.040623
    18  C   -0.298277
    19  H    0.183479
    20  H    0.159151
    21  C   -0.327568
    22  H    0.163658
    23  H    0.166844
    24  C   -0.340156
    25  H    0.158155
    26  H    0.166738
    27  C    0.184286
    28  H    0.176688
    29  C   -0.148722
    30  H    0.152103
    31  C   -0.487614
    32  H    0.159401
    33  H    0.167567
    34  H    0.162541
    35  C    0.074486
    36  C   -0.326050
    37  H    0.166488
    38  H    0.172984
    39  C   -0.290615
    40  H    0.193944
    41  C   -0.477662
    42  H    0.167244
    43  H    0.162514
    44  H    0.164628
    45  C   -0.365967
    46  H    0.193881
    47  H    0.152376
    48  C   -0.340749
    49  H    0.144073
    50  H    0.183639
    51  C   -0.307656
    52  H    0.167120
    53  H    0.147330
    54  C    0.193728
    55  H    0.174217
    56  C   -0.485019
    57  H    0.152767
    58  H    0.163419
    59  H    0.160736
    60  C   -0.314643
    61  H    0.158752
    62  H    0.153971
    63  C   -0.300869
    64  H    0.151581
    65  H    0.151787
    66  C   -0.146359
    67  H    0.155476
    68  C   -0.476154
    69  H    0.155885
    70  H    0.158015
    71  H    0.156996
    72  C   -0.476222
    73  H    0.155208
    74  H    0.158315
    75  H    0.156833
 Sum of Mulliken charges =   0.00000

 Dipole moment (field-independent basis, Debye):
    X=              0.5602    Y=             -1.7760    Z=             -1.8988  Tot=              2.6596
 Quadrupole moment (field-independent basis, Debye-Ang):
   XX=           -193.9049   YY=           -193.8444   ZZ=           -180.9140
   XY=            -10.3344   XZ=             -2.6572   YZ=             -2.8494

 ESP charges:
               1
     1  O   -0.763508
     2  H    0.417318
     3  O   -0.739477
     4  H    0.408675
     5  C    0.662615
     6  C    0.081456
     7  H   -0.054580
     8  C   -0.132859
     9  H    0.003819
    10  C   -0.067585
    11  H   -0.045537
    12  C   -0.168600
    13  H   -0.016577
    14  C   -0.182135
    15  H   -0.003349
    16  H   -0.001733
    17  C    0.383341
    18  C   -0.193290
    19  H    0.067530
    20  H    0.015745
    21  C    0.140191
    22  H   -0.043244
    23  H   -0.034080
    24  C    0.036295
    25  H   -0.001513
    26  H   -0.003044
    27  C    0.683975
    28  H   -0.022294
    29  C    0.205568
    30  H   -0.036332
    31  C   -0.520432
    32  H    0.098555
    33  H    0.105211
    34  H    0.086657
    35  C   -0.017986
    36  C   -0.150678
    37  H    0.017388
    38  H    0.054486
    39  C   -0.574045
    40  H    0.194910
    41  C   -0.190854
    42  H    0.024238
    43  H    0.042425
    44  H    0.020433
    45  C   -0.114869
    46  H    0.047791
    47  H    0.027449
    48  C   -0.163017
    49  H    0.021663
    50  H    0.053085
    51  C   -0.030812
    52  H   -0.006874
    53  H    0.008176
    54  C    0.475229
    55  H    0.009229
    56  C   -0.349734
    57  H    0.069376
    58  H    0.067630
    59  H    0.080443
    60  C    0.114698
    61  H   -0.006660
    62  H   -0.029936
    63  C   -0.199089
    64  H    0.014458
    65  H    0.024875
    66  C    0.441728
    67  H   -0.088941
    68  C   -0.276598
    69  H    0.049561
    70  H    0.049113
    71  H    0.050522
    72  C   -0.263581
    73  H    0.044099
    74  H    0.046788
    75  H    0.047105
 Sum of ESP charges =   0.00000

 Normal termination of Gaussian 09 at Wed May 17 11:33:03 2017.
