 Gaussian 09, Revision D.01,
 Gaussian 09:  EM64L-G09RevD.01 24-Apr-2013

 ----------------------------------------------------------------------
 #P HF/6-31G* SCF(Conver=6) NoSymm Test Pop=chelpg IOp(6/33=2) GFInput
 GFPrint
 ----------------------------------------------------------------------

 ----------------------------------------------
 MEP - Input generated by R.E.D.-III.x MOLECULE
 ----------------------------------------------
 Symbolic Z-matrix:
 Charge =  0 Multiplicity = 1

                          Input orientation:
 ---------------------------------------------------------------------
 Center     Atomic      Atomic             Coordinates (Angstroms)
 Number     Number       Type             X           Y           Z
 ---------------------------------------------------------------------
      1          8           0        0.000000    0.000000    0.000000
      2          1           0       -0.230092    0.137865    0.929705
      3          8           0       -3.044374    6.485099    0.000000
      4          1           0       -3.045296    6.684769    0.946727
      5          6           0        4.274679    1.547310   -0.415643
      6          6           0        2.844282    1.062752   -0.793858
      7          1           0        2.738793    1.300288   -1.866850
      8          6           0        1.690841    1.807477   -0.097709
      9          1           0        1.742592    1.634938    0.987415
     10          6           0        1.805787    3.330633   -0.384136
     11          1           0        1.627448    3.443467   -1.466256
     12          6           0        5.136061    0.571935   -1.292221
     13          1           0        5.042655    0.934571   -2.328524
     14          6           0        4.348059    3.041202   -0.790125
     15          1           0        4.257663    3.134632   -1.882075
     16          1           0        5.312679    3.482086   -0.520259
     17          6           0        0.688162    4.179389    0.316350
     18          6           0        2.927791   -0.468287   -0.695940
     19          1           0        2.157888   -0.967369   -1.288807
     20          1           0        2.775859   -0.797916    0.337369
     21          6           0        3.232577    3.858877   -0.111860
     22          1           0        3.420195    3.879253    0.967163
     23          1           0        3.310354    4.897896   -0.450835
     24          6           0        4.365774   -0.787810   -1.184744
     25          1           0        4.875055   -1.460203   -0.483825
     26          1           0        4.350794   -1.304472   -2.149246
     27          6           0        0.320926    1.283894   -0.571716
     28          1           0        0.373929    1.074185   -1.649524
     29          6           0        6.654310    0.419899   -1.010155
     30          1           0        6.761067    0.000000    0.000000
     31          6           0        4.587965    1.341239    1.084287
     32          1           0        3.865494    1.842885    1.733543
     33          1           0        4.587642    0.282438    1.359466
     34          1           0        5.576405    1.742049    1.332143
     35          6           0       -0.676078    3.510422    0.115720
     36          6           0        0.641339    5.590109   -0.350133
     37          1           0        0.651837    5.455121   -1.440520
     38          1           0        1.551949    6.143308   -0.097194
     39          6           0       -0.804583    2.245198   -0.309963
     40          1           0       -1.799863    1.829550   -0.467241
     41          6           0        0.950968    4.333610    1.838414
     42          1           0        1.826352    4.961638    2.030395
     43          1           0        0.103026    4.799097    2.347547
     44          1           0        1.117252    3.361542    2.312737
     45          6           0       -1.907741    4.345903    0.410169
     46          1           0       -2.813041    3.797678    0.131611
     47          1           0       -1.975744    4.539165    1.493105
     48          6           0       -0.583341    6.441847    0.018180
     49          1           0       -0.569009    6.693689    1.089049
     50          1           0       -0.555981    7.391948   -0.527352
     51          6           0        7.270929   -0.590210   -2.012083
     52          1           0        6.687790   -1.518110   -1.990656
     53          1           0        7.151219   -0.179824   -3.026051
     54          6           0       -1.883949    5.706068   -0.302796
     55          1           0       -1.946479    5.541707   -1.385440
     56          6           0        7.421722    1.752291   -1.053835
     57          1           0        7.287562    2.252415   -2.021470
     58          1           0        8.495140    1.596555   -0.909563
     59          1           0        7.094339    2.442547   -0.273426
     60          6           0        8.752805   -0.965414   -1.809791
     61          1           0        9.031712   -1.638510   -2.630363
     62          1           0        9.386684   -0.078485   -1.925052
     63          6           0        9.048468   -1.651490   -0.465888
     64          1           0        8.348287   -2.490379   -0.338978
     65          1           0        8.834418   -0.952868    0.354029
     66          6           0       10.487227   -2.186950   -0.271142
     67          1           0       10.512605   -2.620414    0.739692
     68          6           0       11.544165   -1.070599   -0.310020
     69          1           0       11.625125   -0.625703   -1.308502
     70          1           0       12.533512   -1.460855   -0.045202
     71          1           0       11.302612   -0.267240    0.396010
     72          6           0       10.840941   -3.316567   -1.252819
     73          1           0       10.902039   -2.953570   -2.285190
     74          1           0       11.813476   -3.756883   -1.004652
     75          1           0       10.094155   -4.118747   -1.223669
 ---------------------------------------------------------------------

 SCF Done:  E(RHF) =  -1198.92578203     A.U. after    9 cycles

 Alpha  occ. eigenvalues --  -20.55894 -20.55559 -11.28017 -11.27879 -11.24876
 Alpha  occ. eigenvalues --  -11.24086 -11.23172 -11.22918 -11.22891 -11.22728
 Alpha  occ. eigenvalues --  -11.22565 -11.22505 -11.22500 -11.22263 -11.22240
 Alpha  occ. eigenvalues --  -11.22194 -11.21956 -11.21902 -11.21649 -11.21556
 Alpha  occ. eigenvalues --  -11.21437 -11.21367 -11.21299 -11.21030 -11.21023
 Alpha  occ. eigenvalues --  -11.20967 -11.20929 -11.20817 -11.20408  -1.35266
 Alpha  occ. eigenvalues --   -1.34748  -1.16047  -1.13843  -1.09620  -1.08034
 Alpha  occ. eigenvalues --   -1.05905  -1.05669  -1.03043  -1.01672  -0.99317
 Alpha  occ. eigenvalues --   -0.97899  -0.96213  -0.92867  -0.92362  -0.92282
 Alpha  occ. eigenvalues --   -0.91121  -0.90559  -0.86172  -0.84609  -0.82811
 Alpha  occ. eigenvalues --   -0.82739  -0.78907  -0.78296  -0.76992  -0.75051
 Alpha  occ. eigenvalues --   -0.73025  -0.72047  -0.69938  -0.67249  -0.66497
 Alpha  occ. eigenvalues --   -0.64673  -0.64078  -0.63974  -0.63275  -0.62687
 Alpha  occ. eigenvalues --   -0.62007  -0.60948  -0.60673  -0.60275  -0.59297
 Alpha  occ. eigenvalues --   -0.58660  -0.58535  -0.57814  -0.57454  -0.56297
 Alpha  occ. eigenvalues --   -0.56069  -0.55732  -0.55069  -0.54934  -0.54358
 Alpha  occ. eigenvalues --   -0.54148  -0.53721  -0.53191  -0.52999  -0.52567
 Alpha  occ. eigenvalues --   -0.52227  -0.51916  -0.51162  -0.50780  -0.50006
 Alpha  occ. eigenvalues --   -0.49163  -0.48447  -0.48082  -0.47903  -0.47131
 Alpha  occ. eigenvalues --   -0.46956  -0.46473  -0.46273  -0.45987  -0.45254
 Alpha  occ. eigenvalues --   -0.44952  -0.44824  -0.44264  -0.43568  -0.43421
 Alpha  occ. eigenvalues --   -0.42840  -0.42506  -0.42474  -0.41577  -0.40360
 Alpha  occ. eigenvalues --   -0.38463  -0.34005
 Alpha virt. eigenvalues --    0.16216   0.20750   0.21113   0.21924   0.22340
 Alpha virt. eigenvalues --    0.22962   0.24089   0.24655   0.25285   0.25500
 Alpha virt. eigenvalues --    0.25855   0.26290   0.26746   0.26873   0.27297

 Mulliken charges:
               1
     1  O   -0.763754
     2  H    0.429020
     3  O   -0.759002
     4  H    0.428096
     5  C   -0.029381
     6  C   -0.167639
     7  H    0.150192
     8  C   -0.167273
     9  H    0.154293
    10  C   -0.167010
    11  H    0.159363
    12  C   -0.135100
    13  H    0.151422
    14  C   -0.297948
    15  H    0.152409
    16  H    0.164661
    17  C   -0.040591
    18  C   -0.298203
    19  H    0.183304
    20  H    0.159146
    21  C   -0.327535
    22  H    0.163607
    23  H    0.166841
    24  C   -0.340048
    25  H    0.158231
    26  H    0.166833
    27  C    0.184335
    28  H    0.176692
    29  C   -0.154924
    30  H    0.157886
    31  C   -0.487689
    32  H    0.159424
    33  H    0.167677
    34  H    0.162041
    35  C    0.074474
    36  C   -0.326063
    37  H    0.166501
    38  H    0.172981
    39  C   -0.290681
    40  H    0.193941
    41  C   -0.477646
    42  H    0.167222
    43  H    0.162498
    44  H    0.164638
    45  C   -0.365990
    46  H    0.193883
    47  H    0.152363
    48  C   -0.340754
    49  H    0.144069
    50  H    0.183639
    51  C   -0.308293
    52  H    0.165830
    53  H    0.149963
    54  C    0.193742
    55  H    0.174229
    56  C   -0.485216
    57  H    0.152595
    58  H    0.163429
    59  H    0.160716
    60  C   -0.318764
    61  H    0.160070
    62  H    0.158359
    63  C   -0.305116
    64  H    0.150602
    65  H    0.155107
    66  C   -0.145654
    67  H    0.154971
    68  C   -0.477034
    69  H    0.156613
    70  H    0.158535
    71  H    0.155890
    72  C   -0.476414
    73  H    0.156044
    74  H    0.158175
    75  H    0.157169
 Sum of Mulliken charges =   0.00000

 Dipole moment (field-independent basis, Debye):
    X=              1.4524    Y=              1.1758    Z=              1.9968  Tot=              2.7349
 Quadrupole moment (field-independent basis, Debye-Ang):
   XX=           -193.2156   YY=           -188.3933   ZZ=           -180.9786
   XY=              9.9825   XZ=             -3.9836   YZ=              7.9988

 ESP charges:
               1
     1  O   -0.762097
     2  H    0.414900
     3  O   -0.744889
     4  H    0.409332
     5  C    0.597462
     6  C    0.110795
     7  H   -0.053356
     8  C   -0.115857
     9  H    0.000890
    10  C   -0.121124
    11  H   -0.033769
    12  C   -0.253866
    13  H   -0.000579
    14  C   -0.225847
    15  H    0.011427
    16  H    0.018687
    17  C    0.395112
    18  C   -0.195819
    19  H    0.062643
    20  H    0.015775
    21  C    0.186145
    22  H   -0.047511
    23  H   -0.043295
    24  C    0.087088
    25  H   -0.021120
    26  H   -0.015570
    27  C    0.683995
    28  H   -0.026389
    29  C    0.441693
    30  H   -0.077732
    31  C   -0.508424
    32  H    0.102370
    33  H    0.103795
    34  H    0.085151
    35  C   -0.031294
    36  C   -0.145492
    37  H    0.018979
    38  H    0.054687
    39  C   -0.559481
    40  H    0.191631
    41  C   -0.178301
    42  H    0.019369
    43  H    0.039199
    44  H    0.019287
    45  C   -0.121596
    46  H    0.049561
    47  H    0.027053
    48  C   -0.180396
    49  H    0.024999
    50  H    0.055648
    51  C   -0.119009
    52  H    0.009660
    53  H    0.000541
    54  C    0.499211
    55  H    0.003044
    56  C   -0.399079
    57  H    0.065627
    58  H    0.089771
    59  H    0.073976
    60  C    0.101004
    61  H   -0.020692
    62  H   -0.026131
    63  C   -0.105462
    64  H   -0.004279
    65  H   -0.012821
    66  C    0.436028
    67  H   -0.088155
    68  C   -0.283009
    69  H    0.050442
    70  H    0.053405
    71  H    0.047425
    72  C   -0.313963
    73  H    0.061135
    74  H    0.059726
    75  H    0.057733
 Sum of ESP charges =   0.00000

 Normal termination of Gaussian 09 at Wed May 17 12:57:50 2017.
