 Gaussian 09, Revision D.01,
 Gaussian 09:  EM64L-G09RevD.01 24-Apr-2013

 ----------------------------------------------------------------------
 #P HF/6-31G* SCF(Conver=6) NoSymm Test Pop=chelpg IOp(6/33=2) GFInput
 GFPrint
 ----------------------------------------------------------------------

 ----------------------------------------------
 MEP - Input generated by R.E.D.-III.x MOLECULE
 ----------------------------------------------
 Symbolic Z-matrix:
 Charge =  0 Multiplicity = 1

                          Input orientation:
 ---------------------------------------------------------------------
 Center     Atomic      Atomic             Coordinates (Angstroms)
 Number     Number       Type             X           Y           Z
 ---------------------------------------------------------------------
      1          8           0        6.708232    0.901421    0.000000
      2          1           0        7.060013    0.000000    0.000000
      3          8           0        9.787127    0.342451   -6.445357
      4          1           0        9.914298   -0.614941   -6.503565
      5          6           0        2.432787    0.516194   -1.550053
      6          6           0        3.795061    1.147197   -1.139844
      7          1           0        3.761143    2.176813   -1.536526
      8          6           0        5.036727    0.505810   -1.784532
      9          1           0        5.126555   -0.539092   -1.452769
     10          6           0        4.899173    0.546439   -3.332373
     11          1           0        4.934892    1.614081   -3.605152
     12          6           0        1.457825    1.408812   -0.706145
     13          1           0        1.444783    2.387245   -1.209675
     14          6           0        2.322286    0.651511   -3.081186
     15          1           0        2.267175    1.719550   -3.337268
     16          1           0        1.405292    0.192128   -3.463589
     17          6           0        6.107405   -0.118380   -4.079995
     18          6           0        3.710133    1.269769    0.390739
     19          1           0        4.375813    2.042011    0.783251
     20          1           0        4.015499    0.334401    0.871330
     21          6           0        3.525659    0.014161   -3.801761
     22          1           0        3.482194   -1.071491   -3.662879
     23          1           0        3.414509    0.184721   -4.878333
     24          6           0        2.210183    1.574926    0.654332
     25          1           0        1.801311    0.883949    1.401159
     26          1           0        2.068257    2.581563    1.060199
     27          6           0        6.327523    1.228186   -1.351406
     28          1           0        6.131308    2.308822   -1.304161
     29          6           0       -0.015514    0.968247   -0.522394
     30          1           0        0.000000    0.000000    0.000000
     31          6           0        2.316242   -0.964631   -1.122338
     32          1           0        3.118721   -1.581439   -1.535266
     33          1           0        2.348773   -1.080107   -0.035009
     34          1           0        1.369869   -1.393509   -1.468444
     35          6           0        7.427068    0.355981   -3.461832
     36          6           0        6.079350    0.333480   -5.573822
     37          1           0        5.924794    1.421003   -5.600569
     38          1           0        5.214841   -0.115239   -6.074261
     39          6           0        7.486764    0.976634   -2.274523
     40          1           0        8.448831    1.322795   -1.896797
     41          6           0        6.048078   -1.667741   -4.005563
     42          1           0        5.211916   -2.063358   -4.590306
     43          1           0        6.960202   -2.124485   -4.398351
     44          1           0        5.935219   -2.010968   -2.972591
     45          6           0        8.694445    0.106156   -4.257540
     46          1           0        9.550112    0.579048   -3.765676
     47          1           0        8.906213   -0.974935   -4.289963
     48          6           0        7.349509    0.007606   -6.374687
     49          1           0        7.478277   -1.081201   -6.465874
     50          1           0        7.259457    0.398841   -7.394425
     51          6           0       -0.791856    1.913899    0.439406
     52          1           0       -1.819132    1.531683    0.526144
     53          1           0       -0.353099    1.801879    1.437987
     54          6           0        8.589770    0.601555   -5.707570
     55          1           0        8.507824    1.695319   -5.705065
     56          6           0       -0.768009    0.738727   -1.847843
     57          1           0       -0.644841    1.572585   -2.545827
     58          1           0       -1.841462    0.615637   -1.665048
     59          1           0       -0.421136   -0.165582   -2.355671
     60          6           0       -0.856633    3.428008    0.137757
     61          1           0       -1.192629    3.915842    1.061746
     62          1           0        0.153545    3.812754   -0.047006
     63          6           0       -1.794559    3.852396   -1.006292
     64          1           0       -2.761659    3.345286   -0.876267
     65          1           0       -1.394550    3.499747   -1.963930
     66          6           0       -2.059742    5.372204   -1.135700
     67          1           0       -2.710597    5.488694   -2.014978
     68          6           0       -0.777486    6.174468   -1.413552
     69          1           0       -0.097803    6.159339   -0.553734
     70          1           0       -1.011793    7.223790   -1.626343
     71          1           0       -0.233996    5.772270   -2.276774
     72          6           0       -2.824492    5.952305    0.065931
     73          1           0       -2.221134    5.935159    0.980761
     74          1           0       -3.103855    6.995891   -0.118970
     75          1           0       -3.745142    5.390007    0.261540
 ---------------------------------------------------------------------

 SCF Done:  E(RHF) =  -1198.92146867     A.U. after    9 cycles

 Alpha  occ. eigenvalues --  -20.55900 -20.55570 -11.28024 -11.27889 -11.24887
 Alpha  occ. eigenvalues --  -11.24094 -11.23195 -11.22924 -11.22900 -11.22729
 Alpha  occ. eigenvalues --  -11.22572 -11.22523 -11.22440 -11.22293 -11.22270
 Alpha  occ. eigenvalues --  -11.22248 -11.21976 -11.21848 -11.21669 -11.21578
 Alpha  occ. eigenvalues --  -11.21431 -11.21360 -11.21292 -11.21034 -11.20985
 Alpha  occ. eigenvalues --  -11.20956 -11.20933 -11.20817 -11.20463  -1.35272
 Alpha  occ. eigenvalues --   -1.34760  -1.16068  -1.13875  -1.09461  -1.07996
 Alpha  occ. eigenvalues --   -1.05899  -1.05547  -1.03056  -1.01601  -0.99312
 Alpha  occ. eigenvalues --   -0.97872  -0.96252  -0.92917  -0.92324  -0.92299
 Alpha  occ. eigenvalues --   -0.91448  -0.90621  -0.86182  -0.84405  -0.82959
 Alpha  occ. eigenvalues --   -0.82812  -0.79023  -0.78443  -0.76925  -0.74629
 Alpha  occ. eigenvalues --   -0.73352  -0.71571  -0.69980  -0.67287  -0.66581
 Alpha  occ. eigenvalues --   -0.64790  -0.63967  -0.63690  -0.63153  -0.62473
 Alpha  occ. eigenvalues --   -0.61580  -0.61478  -0.60742  -0.60229  -0.59656
 Alpha  occ. eigenvalues --   -0.58714  -0.58572  -0.57658  -0.57023  -0.56402
 Alpha  occ. eigenvalues --   -0.56097  -0.55699  -0.55422  -0.54815  -0.54418
 Alpha  occ. eigenvalues --   -0.54074  -0.53711  -0.53210  -0.52798  -0.52644
 Alpha  occ. eigenvalues --   -0.52169  -0.52021  -0.51477  -0.50851  -0.50445
 Alpha  occ. eigenvalues --   -0.48565  -0.48221  -0.48200  -0.48100  -0.47348
 Alpha  occ. eigenvalues --   -0.47026  -0.46686  -0.46349  -0.46001  -0.45176
 Alpha  occ. eigenvalues --   -0.44940  -0.44809  -0.43757  -0.43558  -0.43370
 Alpha  occ. eigenvalues --   -0.42927  -0.42534  -0.42001  -0.41590  -0.40389
 Alpha  occ. eigenvalues --   -0.38523  -0.34014
 Alpha virt. eigenvalues --    0.16206   0.20519   0.20989   0.22114   0.22218
 Alpha virt. eigenvalues --    0.22865   0.24079   0.24286   0.24769   0.25404
 Alpha virt. eigenvalues --    0.25902   0.26298   0.26550   0.26937   0.27441

 Mulliken charges:
               1
     1  O   -0.763715
     2  H    0.429030
     3  O   -0.758983
     4  H    0.428109
     5  C   -0.028430
     6  C   -0.167235
     7  H    0.149951
     8  C   -0.167136
     9  H    0.154372
    10  C   -0.167073
    11  H    0.159267
    12  C   -0.142276
    13  H    0.154699
    14  C   -0.297965
    15  H    0.151449
    16  H    0.165456
    17  C   -0.040571
    18  C   -0.298077
    19  H    0.182271
    20  H    0.160251
    21  C   -0.327637
    22  H    0.163792
    23  H    0.166868
    24  C   -0.340522
    25  H    0.158887
    26  H    0.167038
    27  C    0.184474
    28  H    0.176657
    29  C   -0.142739
    30  H    0.155324
    31  C   -0.488231
    32  H    0.159681
    33  H    0.167754
    34  H    0.162289
    35  C    0.074512
    36  C   -0.326102
    37  H    0.166458
    38  H    0.173004
    39  C   -0.290845
    40  H    0.193983
    41  C   -0.477700
    42  H    0.167221
    43  H    0.162552
    44  H    0.164679
    45  C   -0.365977
    46  H    0.193901
    47  H    0.152376
    48  C   -0.340747
    49  H    0.144104
    50  H    0.183653
    51  C   -0.313588
    52  H    0.152194
    53  H    0.162994
    54  C    0.193730
    55  H    0.174230
    56  C   -0.487125
    57  H    0.158104
    58  H    0.158616
    59  H    0.158913
    60  C   -0.319497
    61  H    0.158498
    62  H    0.161141
    63  C   -0.302940
    64  H    0.149771
    65  H    0.156712
    66  C   -0.146865
    67  H    0.154736
    68  C   -0.476574
    69  H    0.157118
    70  H    0.158378
    71  H    0.154857
    72  C   -0.476486
    73  H    0.155998
    74  H    0.158236
    75  H    0.156747
 Sum of Mulliken charges =   0.00000

 Dipole moment (field-independent basis, Debye):
    X=             -1.1966    Y=             -2.3313    Z=             -0.9167  Tot=              2.7762
 Quadrupole moment (field-independent basis, Debye-Ang):
   XX=           -207.0647   YY=           -184.6435   ZZ=           -190.6866
   XY=            -20.9978   XZ=              3.9885   YZ=              7.1632

 ESP charges:
               1
     1  O   -0.757845
     2  H    0.413656
     3  O   -0.735029
     4  H    0.405987
     5  C    0.524009
     6  C    0.165827
     7  H   -0.065043
     8  C   -0.073285
     9  H   -0.012432
    10  C   -0.107502
    11  H   -0.044796
    12  C   -0.144496
    13  H   -0.026227
    14  C   -0.266695
    15  H    0.031373
    16  H    0.031935
    17  C    0.446738
    18  C   -0.254607
    19  H    0.077256
    20  H    0.024746
    21  C    0.155517
    22  H   -0.034313
    23  H   -0.030798
    24  C    0.088507
    25  H   -0.004108
    26  H   -0.027011
    27  C    0.651854
    28  H   -0.025376
    29  C    0.359416
    30  H   -0.086191
    31  C   -0.495907
    32  H    0.098531
    33  H    0.101316
    34  H    0.093657
    35  C   -0.097307
    36  C   -0.144228
    37  H    0.013598
    38  H    0.042537
    39  C   -0.529766
    40  H    0.188337
    41  C   -0.222790
    42  H    0.024988
    43  H    0.050597
    44  H    0.028136
    45  C   -0.038850
    46  H    0.030646
    47  H    0.010074
    48  C   -0.122103
    49  H    0.008596
    50  H    0.042744
    51  C   -0.050841
    52  H   -0.009049
    53  H   -0.038472
    54  C    0.445032
    55  H    0.008319
    56  C   -0.346979
    57  H    0.063116
    58  H    0.064107
    59  H    0.066815
    60  C    0.164808
    61  H   -0.041883
    62  H   -0.027797
    63  C   -0.137157
    64  H    0.008398
    65  H   -0.003850
    66  C    0.398713
    67  H   -0.077917
    68  C   -0.257552
    69  H    0.041716
    70  H    0.049350
    71  H    0.043665
    72  C   -0.296756
    73  H    0.061260
    74  H    0.057849
    75  H    0.051233
 Sum of ESP charges =   0.00000

 Normal termination of Gaussian 09 at Wed May 17 11:51:30 2017.
