 Gaussian 09, Revision D.01,
 Gaussian 09:  EM64L-G09RevD.01 24-Apr-2013

 ----------------------------------------------------------------------
 #P HF/6-31G* SCF(Conver=6) NoSymm Test Pop=chelpg IOp(6/33=2) GFInput
 GFPrint
 ----------------------------------------------------------------------

 ----------------------------------------------
 MEP - Input generated by R.E.D.-III.x MOLECULE
 ----------------------------------------------
 Symbolic Z-matrix:
 Charge =  0 Multiplicity = 1

                          Input orientation:
 ---------------------------------------------------------------------
 Center     Atomic      Atomic             Coordinates (Angstroms)
 Number     Number       Type             X           Y           Z
 ---------------------------------------------------------------------
      1          8           0        4.211602    6.555456    4.120312
      2          1           0        4.991969    6.904213    3.669388
      3          6           0        0.000000    0.000000    0.000000
      4          6           0        1.345533    0.619529   -0.472292
      5          1           0        2.127660    0.000000    0.000000
      6          6           0        1.613590    2.054733    0.000000
      7          1           0        0.850247    2.723186   -0.422993
      8          6           0        1.546454    2.121364    1.548031
      9          1           0        2.409124    1.534857    1.905485
     10          6           0        0.088783   -1.405787   -0.691351
     11          1           0        0.825812   -1.983839   -0.111228
     12          6           0        0.034569    0.013948    1.542623
     13          1           0        0.837985   -0.656247    1.881413
     14          1           0       -0.894096   -0.372501    1.974116
     15          6           0        1.761806    3.573787    2.101899
     16          6           0        1.399445    0.311116   -1.975553
     17          1           0        2.421980    0.306600   -2.366046
     18          1           0        0.846885    1.067769   -2.546346
     19          6           0        0.278051    1.431488    2.100871
     20          1           0       -0.602836    2.045952    1.886532
     21          1           0        0.339798    1.366445    3.193102
     22          6           0        0.721488   -1.081756   -2.088726
     23          1           0       -0.051970   -1.077872   -2.866107
     24          1           0        1.444660   -1.850015   -2.378141
     25          6           0        2.987800    2.544916   -0.484371
     26          1           0        2.954505    2.757491   -1.561230
     27          1           0        3.727669    1.735059   -0.370604
     28          6           0       -1.181133   -2.289460   -0.804071
     29          1           0       -1.906473   -1.754881   -1.436521
     30          6           0       -1.227062    0.778959   -0.527312
     31          1           0       -2.154884    0.351259   -0.133306
     32          1           0       -1.207920    1.831730   -0.235096
     33          1           0       -1.293788    0.748360   -1.619127
     34          6           0        2.938744    4.246088    1.381073
     35          6           0        2.111647    3.480457    3.619937
     36          1           0        2.885221    2.710196    3.746325
     37          1           0        1.233834    3.133097    4.175589
     38          6           0        3.473057    3.762557    0.249917
     39          1           0        4.325338    4.283704   -0.187706
     40          6           0        0.495152    4.451463    1.915490
     41          1           0       -0.324725    4.111505    2.556026
     42          1           0        0.689767    5.496080    2.170691
     43          1           0        0.150300    4.432023    0.877006
     44          6           0        3.489917    5.510426    2.013767
     45          1           0        4.378673    5.839252    1.459807
     46          1           0        2.758359    6.328530    1.952039
     47          6           0        2.616361    4.786905    4.249701
     48          1           0        1.836047    5.558145    4.242746
     49          1           0        2.881489    4.618532    5.299668
     50          6           0       -0.845072   -3.620530   -1.521921
     51          1           0       -0.262905   -3.407778   -2.425749
     52          1           0       -0.186891   -4.216260   -0.870609
     53          6           0        3.829109    5.321869    3.499476
     54          1           0        4.653720    4.595345    3.588652
     55          6           0       -1.849456   -2.567876    0.553884
     56          1           0       -1.139001   -3.026309    1.253403
     57          1           0       -2.695948   -3.252427    0.445942
     58          1           0       -2.234371   -1.657863    1.019110
     59          6           0       -2.055468   -4.473461   -1.937243
     60          1           0       -2.618446   -4.787512   -1.051146
     61          1           0       -2.737095   -3.851979   -2.533946
     62          6           0       -1.639459   -5.714387   -2.744193
     63          1           0       -0.926826   -6.299569   -2.144900
     64          1           0       -1.085473   -5.384941   -3.635138
     65          6           0       -2.776862   -6.657271   -3.201596
     66          1           0       -2.288474   -7.467377   -3.763305
     67          6           0       -3.763165   -5.972842   -4.162463
     68          1           0       -3.240983   -5.512430   -5.009530
     69          1           0       -4.480276   -6.696774   -4.566085
     70          1           0       -4.339637   -5.188395   -3.658683
     71          6           0       -3.517576   -7.310149   -2.022640
     72          1           0       -2.819455   -7.805976   -1.337905
     73          1           0       -4.228137   -8.064783   -2.378866
     74          1           0       -4.087203   -6.573633   -1.444251
 ---------------------------------------------------------------------

 SCF Done:  E(RHF) =  -1124.07889829     A.U. after    9 cycles

 Alpha  occ. eigenvalues --  -20.55350 -11.27427 -11.23886 -11.22695 -11.22667
 Alpha  occ. eigenvalues --  -11.22521 -11.22342 -11.22301 -11.22133 -11.22055
 Alpha  occ. eigenvalues --  -11.22039 -11.21983 -11.21918 -11.21909 -11.21548
 Alpha  occ. eigenvalues --  -11.21518 -11.21441 -11.21433 -11.21418 -11.21389
 Alpha  occ. eigenvalues --  -11.21341 -11.21340 -11.21302 -11.21167 -11.21027
 Alpha  occ. eigenvalues --  -11.21020 -11.20915 -11.20815  -1.34653  -1.15847
 Alpha  occ. eigenvalues --   -1.13426  -1.09585  -1.07983  -1.06070  -1.05571
 Alpha  occ. eigenvalues --   -1.02649  -1.01348  -0.99563  -0.97725  -0.95786
 Alpha  occ. eigenvalues --   -0.92712  -0.92385  -0.91946  -0.90923  -0.90643
 Alpha  occ. eigenvalues --   -0.85955  -0.84119  -0.82347  -0.81733  -0.78637
 Alpha  occ. eigenvalues --   -0.76595  -0.76274  -0.74628  -0.73672  -0.71740
 Alpha  occ. eigenvalues --   -0.68972  -0.66832  -0.65059  -0.64307  -0.63813
 Alpha  occ. eigenvalues --   -0.63309  -0.62369  -0.62275  -0.60906  -0.60236
 Alpha  occ. eigenvalues --   -0.59519  -0.58896  -0.58508  -0.58304  -0.57839
 Alpha  occ. eigenvalues --   -0.56522  -0.56229  -0.55606  -0.55222  -0.54710
 Alpha  occ. eigenvalues --   -0.54537  -0.53648  -0.53296  -0.52757  -0.52514
 Alpha  occ. eigenvalues --   -0.52344  -0.51728  -0.51468  -0.51161  -0.50734
 Alpha  occ. eigenvalues --   -0.50597  -0.50192  -0.48564  -0.48324  -0.47843
 Alpha  occ. eigenvalues --   -0.47101  -0.47041  -0.46592  -0.46085  -0.45355
 Alpha  occ. eigenvalues --   -0.45170  -0.44935  -0.44469  -0.44122  -0.43720
 Alpha  occ. eigenvalues --   -0.43454  -0.43286  -0.42936  -0.42407  -0.41530
 Alpha  occ. eigenvalues --   -0.39773  -0.38395  -0.32776
 Alpha virt. eigenvalues --    0.18189   0.21220   0.21958   0.22250   0.22573
 Alpha virt. eigenvalues --    0.23407   0.24170   0.24666   0.24931   0.25950
 Alpha virt. eigenvalues --    0.26053   0.26326   0.26943   0.27561   0.28120

 Mulliken charges:
               1
     1  O   -0.765603
     2  H    0.433023
     3  C   -0.029022
     4  C   -0.158235
     5  H    0.151044
     6  C   -0.153676
     7  H    0.163571
     8  C   -0.154749
     9  H    0.155027
    10  C   -0.134983
    11  H    0.152563
    12  C   -0.298418
    13  H    0.151234
    14  H    0.163782
    15  C   -0.038450
    16  C   -0.316264
    17  H    0.165403
    18  H    0.158238
    19  C   -0.327687
    20  H    0.163849
    21  H    0.165918
    22  C   -0.335860
    23  H    0.160030
    24  H    0.167641
    25  C   -0.324501
    26  H    0.170172
    27  H    0.161245
    28  C   -0.149322
    29  H    0.152386
    30  C   -0.489013
    31  H    0.162802
    32  H    0.164703
    33  H    0.163853
    34  C    0.063520
    35  C   -0.326271
    36  H    0.160352
    37  H    0.169521
    38  C   -0.235033
    39  H    0.171920
    40  C   -0.480177
    41  H    0.162483
    42  H    0.168512
    43  H    0.165290
    44  C   -0.370666
    45  H    0.159867
    46  H    0.179314
    47  C   -0.327097
    48  H    0.171469
    49  H    0.178729
    50  C   -0.307219
    51  H    0.164952
    52  H    0.147577
    53  C    0.194440
    54  H    0.144542
    55  C   -0.484943
    56  H    0.153011
    57  H    0.163475
    58  H    0.162516
    59  C   -0.314761
    60  H    0.159605
    61  H    0.154026
    62  C   -0.300806
    63  H    0.151611
    64  H    0.151059
    65  C   -0.146370
    66  H    0.155388
    67  C   -0.476187
    68  H    0.156571
    69  H    0.158261
    70  H    0.156193
    71  C   -0.476303
    72  H    0.156930
    73  H    0.158499
    74  H    0.155497
 Sum of Mulliken charges =   0.00000

 Dipole moment (field-independent basis, Debye):
    X=              0.5475    Y=             -0.9859    Z=             -1.4022  Tot=              1.7994
 Quadrupole moment (field-independent basis, Debye-Ang):
   XX=           -173.8857   YY=           -190.3632   ZZ=           -190.7534
   XY=              1.2071   XZ=             -4.3715   YZ=            -11.5471

 ESP charges:
               1
     1  O   -0.767308
     2  H    0.426359
     3  C    0.590401
     4  C   -0.002239
     5  H   -0.027897
     6  C    0.132148
     7  H   -0.055822
     8  C   -0.081657
     9  H   -0.034255
    10  C   -0.112345
    11  H   -0.027953
    12  C   -0.197252
    13  H    0.003255
    14  H    0.017591
    15  C    0.570027
    16  C   -0.137429
    17  H    0.019866
    18  H    0.009785
    19  C    0.032483
    20  H   -0.016731
    21  H    0.006150
    22  C    0.029041
    23  H   -0.006506
    24  H    0.002031
    25  C    0.135713
    26  H   -0.013624
    27  H   -0.019110
    28  C    0.230463
    29  H   -0.038303
    30  C   -0.476131
    31  H    0.079214
    32  H    0.096899
    33  H    0.091252
    34  C   -0.233859
    35  C   -0.304300
    36  H    0.039944
    37  H    0.045882
    38  C   -0.308395
    39  H    0.143031
    40  C   -0.259527
    41  H    0.024496
    42  H    0.065939
    43  H    0.032465
    44  C   -0.039361
    45  H    0.015310
    46  H    0.020592
    47  C    0.083631
    48  H   -0.001162
    49  H    0.010749
    50  C   -0.082065
    51  H   -0.002182
    52  H    0.017341
    53  C    0.445050
    54  H   -0.066725
    55  C   -0.369261
    56  H    0.073285
    57  H    0.074714
    58  H    0.082065
    59  C    0.139676
    60  H   -0.016391
    61  H   -0.037147
    62  C   -0.143700
    63  H   -0.001387
    64  H    0.007094
    65  C    0.442953
    66  H   -0.090364
    67  C   -0.291277
    68  H    0.052468
    69  H    0.054279
    70  H    0.052148
    71  C   -0.295400
    72  H    0.053861
    73  H    0.056146
    74  H    0.051271
 Sum of ESP charges =   0.00000

 Normal termination of Gaussian 09 at Mon Mar 20 12:58:57 2017.
