 Gaussian 09, Revision D.01,
 Gaussian 09:  EM64L-G09RevD.01 24-Apr-2013

 ----------------------------------------------------------------------
 #P HF/6-31G* SCF(Conver=6) NoSymm Test Pop=chelpg IOp(6/33=2) GFInput
 GFPrint
 ----------------------------------------------------------------------

 ----------------------------------------------
 MEP - Input generated by R.E.D.-III.x MOLECULE
 ----------------------------------------------
 Symbolic Z-matrix:
 Charge =  0 Multiplicity = 1

                          Input orientation:
 ---------------------------------------------------------------------
 Center     Atomic      Atomic             Coordinates (Angstroms)
 Number     Number       Type             X           Y           Z
 ---------------------------------------------------------------------
      1          8           0        4.193870    6.565369    4.119638
      2          1           0        4.974011    6.915546    3.669418
      3          6           0        0.000000    0.000000    0.000000
      4          6           0        1.345375    0.619279   -0.472043
      5          1           0        2.127829    0.000000    0.000000
      6          6           0        1.612093    2.054762    0.000000
      7          1           0        0.849301    2.722352   -0.425214
      8          6           0        1.541357    2.122859    1.548083
      9          1           0        2.403818    1.537604    1.908026
     10          6           0        0.089899   -1.406311   -0.688160
     11          1           0        0.825545   -1.984548   -0.106325
     12          6           0        0.031089    0.014411    1.542297
     13          1           0        0.834596   -0.654677    1.883109
     14          1           0       -0.898490   -0.373511    1.970809
     15          6           0        1.753935    3.576115    2.100877
     16          6           0        1.397714    0.310447   -1.975643
     17          1           0        2.419465    0.308898   -2.368204
     18          1           0        0.841734    1.065414   -2.545332
     19          6           0        0.272287    1.432564    2.099701
     20          1           0       -0.608673    2.046031    1.882914
     21          1           0        0.332295    1.369131    3.192097
     22          6           0        0.723778   -1.084858   -2.086398
     23          1           0       -0.047681   -1.087873   -2.865456
     24          1           0        1.451858   -1.849556   -2.372698
     25          6           0        2.986895    2.545714   -0.481647
     26          1           0        2.956138    2.756388   -1.558955
     27          1           0        3.727524    1.737059   -0.364435
     28          6           0       -1.180696   -2.286179   -0.806708
     29          1           0       -1.893618   -1.743520   -1.444877
     30          6           0       -1.225789    0.779612   -0.530271
     31          1           0       -2.154734    0.356641   -0.134075
     32          1           0       -1.203794    1.833584   -0.242544
     33          1           0       -1.293010    0.744900   -1.621916
     34          6           0        2.930945    4.249488    1.381162
     35          6           0        2.101883    3.484928    3.619438
     36          1           0        2.877139    2.716639    3.747656
     37          1           0        1.224132    3.135885    4.174160
     38          6           0        3.468485    3.765290    0.251820
     39          1           0        4.320741    4.287334   -0.184760
     40          6           0        0.486137    4.451661    1.911771
     41          1           0       -0.333183    4.113554    2.554000
     42          1           0        0.679510    5.497570    2.162569
     43          1           0        0.140723    4.427763    0.873596
     44          6           0        3.478960    5.515573    2.013164
     45          1           0        4.368317    5.844916    1.460486
     46          1           0        2.746353    6.332533    1.948740
     47          6           0        2.602469    4.793283    4.248485
     48          1           0        1.820469    5.562792    4.239065
     49          1           0        2.866011    4.626881    5.299167
     50          6           0       -0.857337   -3.639150   -1.513656
     51          1           0        0.147642   -3.603729   -1.946843
     52          1           0       -0.823880   -4.437944   -0.759044
     53          6           0        3.815477    5.329980    3.499867
     54          1           0        4.641575    4.605524    3.591846
     55          6           0       -1.868150   -2.553569    0.545239
     56          1           0       -1.157871   -2.977438    1.266013
     57          1           0       -2.684390   -3.273195    0.429268
     58          1           0       -2.291984   -1.648193    0.987104
     59          6           0       -1.828042   -4.050375   -2.638835
     60          1           0       -1.831066   -3.259975   -3.401448
     61          1           0       -1.418782   -4.943974   -3.127538
     62          6           0       -3.267802   -4.336588   -2.182975
     63          1           0       -3.692095   -3.431087   -1.729089
     64          1           0       -3.240049   -5.093691   -1.385658
     65          6           0       -4.247745   -4.823016   -3.277709
     66          1           0       -5.214935   -4.964655   -2.772993
     67          6           0       -3.848573   -6.183516   -3.873188
     68          1           0       -3.697798   -6.933917   -3.088167
     69          1           0       -4.628581   -6.557062   -4.546468
     70          1           0       -2.921754   -6.116311   -4.454387
     71          6           0       -4.466145   -3.778200   -4.384768
     72          1           0       -4.759005   -2.808138   -3.965987
     73          1           0       -5.258318   -4.098010   -5.071349
     74          1           0       -3.559471   -3.625064   -4.981308
 ---------------------------------------------------------------------

 SCF Done:  E(RHF) =  -1124.07406805     A.U. after    9 cycles

 Alpha  occ. eigenvalues --  -20.55350 -11.27427 -11.23888 -11.22697 -11.22636
 Alpha  occ. eigenvalues --  -11.22546 -11.22305 -11.22278 -11.22133 -11.22043
 Alpha  occ. eigenvalues --  -11.22040 -11.21985 -11.21918 -11.21909 -11.21560
 Alpha  occ. eigenvalues --  -11.21553 -11.21476 -11.21443 -11.21435 -11.21388
 Alpha  occ. eigenvalues --  -11.21350 -11.21330 -11.21328 -11.21167 -11.21049
 Alpha  occ. eigenvalues --  -11.21024 -11.20919 -11.20813  -1.34653  -1.15846
 Alpha  occ. eigenvalues --   -1.13421  -1.09552  -1.07920  -1.06032  -1.05464
 Alpha  occ. eigenvalues --   -1.02647  -1.01302  -0.99466  -0.97702  -0.95785
 Alpha  occ. eigenvalues --   -0.92723  -0.92403  -0.91968  -0.91254  -0.90641
 Alpha  occ. eigenvalues --   -0.85953  -0.83895  -0.82223  -0.81740  -0.78945
 Alpha  occ. eigenvalues --   -0.76639  -0.76344  -0.74533  -0.73625  -0.71825
 Alpha  occ. eigenvalues --   -0.68979  -0.66837  -0.64962  -0.64316  -0.63396
 Alpha  occ. eigenvalues --   -0.62737  -0.62680  -0.61789  -0.61006  -0.60544
 Alpha  occ. eigenvalues --   -0.59550  -0.59056  -0.58449  -0.58176  -0.57788
 Alpha  occ. eigenvalues --   -0.56463  -0.56016  -0.55848  -0.55370  -0.54589
 Alpha  occ. eigenvalues --   -0.54441  -0.53649  -0.53339  -0.52749  -0.52658
 Alpha  occ. eigenvalues --   -0.52482  -0.52284  -0.51426  -0.51244  -0.50959
 Alpha  occ. eigenvalues --   -0.50564  -0.50232  -0.48692  -0.48340  -0.47587
 Alpha  occ. eigenvalues --   -0.47237  -0.47003  -0.46790  -0.46200  -0.45262
 Alpha  occ. eigenvalues --   -0.45222  -0.44444  -0.44329  -0.43893  -0.43811
 Alpha  occ. eigenvalues --   -0.43346  -0.43088  -0.42874  -0.42331  -0.41608
 Alpha  occ. eigenvalues --   -0.39772  -0.38404  -0.32777
 Alpha virt. eigenvalues --    0.18188   0.21253   0.21855   0.22229   0.22592
 Alpha virt. eigenvalues --    0.23235   0.24040   0.24460   0.24916   0.25882
 Alpha virt. eigenvalues --    0.26426   0.26579   0.26917   0.27525   0.27894

 Mulliken charges:
               1
     1  O   -0.765600
     2  H    0.433023
     3  C   -0.029438
     4  C   -0.158004
     5  H    0.151007
     6  C   -0.153876
     7  H    0.163528
     8  C   -0.154750
     9  H    0.155010
    10  C   -0.142956
    11  H    0.153091
    12  C   -0.298190
    13  H    0.151110
    14  H    0.164257
    15  C   -0.038311
    16  C   -0.316814
    17  H    0.165514
    18  H    0.158387
    19  C   -0.327774
    20  H    0.163877
    21  H    0.165895
    22  C   -0.333550
    23  H    0.160943
    24  H    0.166388
    25  C   -0.324367
    26  H    0.170125
    27  H    0.161200
    28  C   -0.138163
    29  H    0.157004
    30  C   -0.489748
    31  H    0.162769
    32  H    0.164867
    33  H    0.163769
    34  C    0.063532
    35  C   -0.326264
    36  H    0.160355
    37  H    0.169544
    38  C   -0.235071
    39  H    0.171930
    40  C   -0.480328
    41  H    0.162500
    42  H    0.168536
    43  H    0.165256
    44  C   -0.370714
    45  H    0.159871
    46  H    0.179306
    47  C   -0.327116
    48  H    0.171498
    49  H    0.178726
    50  C   -0.319774
    51  H    0.165212
    52  H    0.155281
    53  C    0.194461
    54  H    0.144543
    55  C   -0.488565
    56  H    0.154062
    57  H    0.165503
    58  H    0.159071
    59  C   -0.313128
    60  H    0.154703
    61  H    0.157333
    62  C   -0.306741
    63  H    0.156944
    64  H    0.150459
    65  C   -0.145909
    66  H    0.155342
    67  C   -0.476574
    68  H    0.156918
    69  H    0.158441
    70  H    0.156035
    71  C   -0.476597
    72  H    0.156228
    73  H    0.158505
    74  H    0.156463
 Sum of Mulliken charges =   0.00000

 Dipole moment (field-independent basis, Debye):
    X=              0.4859    Y=             -0.9763    Z=             -1.3406  Tot=              1.7281
 Quadrupole moment (field-independent basis, Debye-Ang):
   XX=           -172.9297   YY=           -190.7275   ZZ=           -191.4720
   XY=              1.7569   XZ=             -4.4538   YZ=            -12.0545

 ESP charges:
               1
     1  O   -0.765267
     2  H    0.426671
     3  C    0.579464
     4  C    0.012275
     5  H   -0.014971
     6  C    0.001981
     7  H   -0.028572
     8  C    0.024476
     9  H   -0.048989
    10  C   -0.241992
    11  H    0.000430
    12  C   -0.154787
    13  H   -0.008958
    14  H    0.014976
    15  C    0.514029
    16  C   -0.050040
    17  H   -0.000662
    18  H    0.000656
    19  C   -0.003430
    20  H   -0.011426
    21  H    0.005319
    22  C   -0.084802
    23  H    0.013649
    24  H    0.046455
    25  C    0.193396
    26  H   -0.021257
    27  H   -0.030250
    28  C    0.429826
    29  H   -0.055916
    30  C   -0.436725
    31  H    0.060943
    32  H    0.088812
    33  H    0.085569
    34  C   -0.202670
    35  C   -0.319820
    36  H    0.043976
    37  H    0.054875
    38  C   -0.329580
    39  H    0.142794
    40  C   -0.310102
    41  H    0.042920
    42  H    0.082261
    43  H    0.046690
    44  C   -0.012161
    45  H    0.006723
    46  H    0.013378
    47  C    0.093814
    48  H   -0.001905
    49  H    0.011197
    50  C   -0.146362
    51  H    0.004377
    52  H    0.020497
    53  C    0.429740
    54  H   -0.065348
    55  C   -0.364577
    56  H    0.056147
    57  H    0.071804
    58  H    0.070970
    59  C    0.100569
    60  H   -0.037779
    61  H   -0.021902
    62  C   -0.009850
    63  H   -0.040677
    64  H   -0.020314
    65  C    0.382438
    66  H   -0.078549
    67  C   -0.311856
    68  H    0.054461
    69  H    0.065430
    70  H    0.060022
    71  C   -0.277528
    72  H    0.048727
    73  H    0.054624
    74  H    0.051661
 Sum of ESP charges =   0.00000

 Normal termination of Gaussian 09 at Mon Mar 20 12:02:45 2017.
