 Gaussian 09, Revision D.01,
 Gaussian 09:  EM64L-G09RevD.01 24-Apr-2013

 ----------------------------------------------------------------------
 #P HF/6-31G* SCF(Conver=6) NoSymm Test Pop=chelpg IOp(6/33=2) GFInput
 GFPrint
 ----------------------------------------------------------------------

 ----------------------------------------------
 MEP - Input generated by R.E.D.-III.x MOLECULE
 ----------------------------------------------
 Symbolic Z-matrix:
 Charge =  0 Multiplicity = 1

                          Input orientation:
 ---------------------------------------------------------------------
 Center     Atomic      Atomic             Coordinates (Angstroms)
 Number     Number       Type             X           Y           Z
 ---------------------------------------------------------------------
      1          8           0       -3.735068   -3.615142   -4.118460
      2          1           0       -3.885052   -4.455971   -3.666293
      3          6           0        1.601099    2.064040    0.000000
      4          6           0        1.327178    0.608194    0.472424
      5          1           0        2.118029    0.000000    0.000000
      6          6           0        0.000000    0.000000    0.000000
      7          1           0       -0.833659    0.579175    0.421887
      8          6           0       -0.080000    0.047587   -1.548098
      9          1           0        0.698372   -0.647426   -1.904488
     10          6           0        2.985893    2.319353    0.692052
     11          1           0        3.725594    1.743450    0.113095
     12          6           0        1.597283    2.026352   -1.542680
     13          1           0        2.443249    1.410163   -1.880365
     14          1           0        1.746555    3.020924   -1.974645
     15          6           0       -1.436537   -0.513701   -2.102364
     16          6           0        1.639578    0.630252    1.975698
     17          1           0        1.894250   -0.360532    2.365055
     18          1           0        0.770691    0.980044    2.546983
     19          6           0        0.282052    1.445065   -2.101823
     20          1           0       -0.528230    2.150559   -1.889110
     21          1           0        0.361262    1.399870   -3.193942
     22          6           0        2.823866    1.628751    2.089960
     23          1           0        2.628180    2.379165    2.865213
     24          1           0        3.745676    1.117332    2.382715
     25          6           0       -0.143223   -1.451435    0.485860
     26          1           0       -0.357853   -1.469402    1.562677
     27          1           0        0.821596   -1.973525    0.372899
     28          6           0        3.536440    3.765491    0.804848
     29          1           0        2.838408    4.335334    1.434182
     30          6           0        0.546574    3.064826    0.526179
     31          1           0        0.735851    4.068741    0.131913
     32          1           0       -0.469661    2.789941    0.233227
     33          1           0        0.559143    3.137175    1.617990
     34          6           0       -1.804601   -1.817474   -1.380103
     35          6           0       -1.260173   -0.832704   -3.619800
     36          1           0       -0.325745   -1.397480   -3.744615
     37          1           0       -1.134688    0.102213   -4.176739
     38          6           0       -1.206963   -2.217571   -0.248039
     39          1           0       -1.506682   -3.170138    0.190444
     40          6           0       -2.594793    0.503203   -1.917992
     41          1           0       -2.464186    1.379360   -2.560923
     42          1           0       -3.561457    0.060886   -2.171274
     43          1           0       -2.658746    0.845281   -0.880371
     44          6           0       -2.897184   -2.659508   -2.012497
     45          1           0       -3.000931   -3.600834   -1.457495
     46          1           0       -3.868396   -2.148295   -1.951945
     47          6           0       -2.405487   -1.639124   -4.249186
     48          1           0       -3.342604   -1.068569   -4.243031
     49          1           0       -2.177627   -1.856672   -5.298864
     50          6           0        4.912860    3.746392    1.518508
     51          1           0        4.821788    3.193447    2.460701
     52          1           0        5.611663    3.169484    0.894244
     53          6           0       -2.631238   -2.944532   -3.497726
     54          1           0       -1.726535   -3.568659   -3.585728
     55          6           0        3.647005    4.482720   -0.551328
     56          1           0        4.276524    3.913672   -1.247217
     57          1           0        4.093216    5.475573   -0.439784
     58          1           0        2.672420    4.624269   -1.023223
     59          6           0        5.556741    5.110155    1.839705
     60          1           0        6.540651    4.908337    2.281711
     61          1           0        5.754942    5.662754    0.913918
     62          6           0        4.733988    5.979731    2.804777
     63          1           0        4.480726    5.377597    3.689939
     64          1           0        3.777142    6.240940    2.333284
     65          6           0        5.401135    7.290626    3.285362
     66          1           0        4.666746    7.777984    3.943735
     67          6           0        5.689322    8.265495    2.131482
     68          1           0        4.789749    8.453511    1.533503
     69          1           0        6.042413    9.229702    2.514680
     70          1           0        6.463432    7.878122    1.459094
     71          6           0        6.663889    7.042874    4.127341
     72          1           0        6.461696    6.354801    4.956659
     73          1           0        7.036019    7.980813    4.555186
     74          1           0        7.474945    6.614563    3.527279
 ---------------------------------------------------------------------

 SCF Done:  E(RHF) =  -1124.07729589     A.U. after    9 cycles

 Alpha  occ. eigenvalues --  -20.55349 -11.27425 -11.23887 -11.22694 -11.22657
 Alpha  occ. eigenvalues --  -11.22547 -11.22298 -11.22258 -11.22132 -11.22038
 Alpha  occ. eigenvalues --  -11.22033 -11.21979 -11.21918 -11.21906 -11.21539
 Alpha  occ. eigenvalues --  -11.21503 -11.21446 -11.21440 -11.21416 -11.21393
 Alpha  occ. eigenvalues --  -11.21388 -11.21339 -11.21293 -11.21167 -11.21051
 Alpha  occ. eigenvalues --  -11.21023 -11.20921 -11.20813  -1.34652  -1.15842
 Alpha  occ. eigenvalues --   -1.13423  -1.09614  -1.07935  -1.06051  -1.05528
 Alpha  occ. eigenvalues --   -1.02643  -1.01311  -0.99392  -0.97710  -0.95768
 Alpha  occ. eigenvalues --   -0.92737  -0.92400  -0.91956  -0.91147  -0.90632
 Alpha  occ. eigenvalues --   -0.85953  -0.84467  -0.82360  -0.81733  -0.78542
 Alpha  occ. eigenvalues --   -0.76621  -0.76342  -0.74723  -0.72882  -0.71810
 Alpha  occ. eigenvalues --   -0.68972  -0.66833  -0.65045  -0.64316  -0.64110
 Alpha  occ. eigenvalues --   -0.63254  -0.62642  -0.61654  -0.60675  -0.60375
 Alpha  occ. eigenvalues --   -0.59435  -0.59036  -0.58626  -0.58248  -0.57771
 Alpha  occ. eigenvalues --   -0.56488  -0.56309  -0.55505  -0.55184  -0.54587
 Alpha  occ. eigenvalues --   -0.54354  -0.53951  -0.53581  -0.52963  -0.52502
 Alpha  occ. eigenvalues --   -0.52355  -0.52050  -0.51513  -0.51220  -0.50910
 Alpha  occ. eigenvalues --   -0.50256  -0.49999  -0.49049  -0.48449  -0.47749
 Alpha  occ. eigenvalues --   -0.47171  -0.47022  -0.46447  -0.46329  -0.45324
 Alpha  occ. eigenvalues --   -0.45107  -0.44959  -0.44285  -0.43793  -0.43609
 Alpha  occ. eigenvalues --   -0.43382  -0.42984  -0.42825  -0.42539  -0.41591
 Alpha  occ. eigenvalues --   -0.39775  -0.38453  -0.32774
 Alpha virt. eigenvalues --    0.18190   0.20807   0.21998   0.22266   0.22587
 Alpha virt. eigenvalues --    0.23435   0.24154   0.24592   0.25141   0.25790
 Alpha virt. eigenvalues --    0.26195   0.26449   0.26861   0.27519   0.28017

 Mulliken charges:
               1
     1  O   -0.765615
     2  H    0.433021
     3  C   -0.028675
     4  C   -0.158353
     5  H    0.151090
     6  C   -0.153706
     7  H    0.163545
     8  C   -0.154750
     9  H    0.155043
    10  C   -0.134440
    11  H    0.152236
    12  C   -0.298415
    13  H    0.151301
    14  H    0.163631
    15  C   -0.038308
    16  C   -0.316273
    17  H    0.165354
    18  H    0.158149
    19  C   -0.327672
    20  H    0.163819
    21  H    0.165884
    22  C   -0.335686
    23  H    0.160152
    24  H    0.167628
    25  C   -0.324473
    26  H    0.170170
    27  H    0.161247
    28  C   -0.155228
    29  H    0.158222
    30  C   -0.489078
    31  H    0.162363
    32  H    0.164724
    33  H    0.163950
    34  C    0.063460
    35  C   -0.326275
    36  H    0.160354
    37  H    0.169519
    38  C   -0.235005
    39  H    0.171917
    40  C   -0.480279
    41  H    0.162464
    42  H    0.168518
    43  H    0.165279
    44  C   -0.370680
    45  H    0.159866
    46  H    0.179285
    47  C   -0.327106
    48  H    0.171461
    49  H    0.178733
    50  C   -0.308484
    51  H    0.163888
    52  H    0.150222
    53  C    0.194472
    54  H    0.144541
    55  C   -0.485168
    56  H    0.152994
    57  H    0.163257
    58  H    0.162480
    59  C   -0.318530
    60  H    0.159873
    61  H    0.159020
    62  C   -0.305108
    63  H    0.149763
    64  H    0.155662
    65  C   -0.145700
    66  H    0.155143
    67  C   -0.477116
    68  H    0.156366
    69  H    0.158696
    70  H    0.156606
    71  C   -0.476394
    72  H    0.156711
    73  H    0.158418
    74  H    0.156021
 Sum of Mulliken charges =   0.00000

 Dipole moment (field-independent basis, Debye):
    X=              1.0059    Y=             -0.2366    Z=              1.4189  Tot=              1.7553
 Quadrupole moment (field-independent basis, Debye-Ang):
   XX=           -187.6164   YY=           -174.7218   ZZ=           -190.7162
   XY=             -1.4383   XZ=             -8.3187   YZ=             -3.7888

 ESP charges:
               1
     1  O   -0.768168
     2  H    0.427459
     3  C    0.566872
     4  C    0.076420
     5  H   -0.039724
     6  C    0.072121
     7  H   -0.054338
     8  C   -0.038234
     9  H   -0.043905
    10  C   -0.258668
    11  H   -0.001401
    12  C   -0.199511
    13  H    0.004641
    14  H    0.027621
    15  C    0.551814
    16  C   -0.141423
    17  H    0.013778
    18  H    0.011311
    19  C    0.035818
    20  H   -0.018075
    21  H   -0.000588
    22  C    0.060475
    23  H   -0.021920
    24  H   -0.001030
    25  C    0.191664
    26  H   -0.023943
    27  H   -0.032916
    28  C    0.479116
    29  H   -0.080841
    30  C   -0.514583
    31  H    0.088158
    32  H    0.108671
    33  H    0.104098
    34  C   -0.192384
    35  C   -0.305787
    36  H    0.038745
    37  H    0.049330
    38  C   -0.347010
    39  H    0.148726
    40  C   -0.313634
    41  H    0.040815
    42  H    0.078718
    43  H    0.048223
    44  C   -0.056449
    45  H    0.017174
    46  H    0.023701
    47  C    0.087548
    48  H   -0.002691
    49  H    0.009439
    50  C   -0.107100
    51  H    0.003129
    52  H   -0.004072
    53  C    0.450996
    54  H   -0.069708
    55  C   -0.447718
    56  H    0.076090
    57  H    0.100515
    58  H    0.085169
    59  C    0.097720
    60  H   -0.019180
    61  H   -0.026263
    62  C   -0.120524
    63  H    0.000829
    64  H   -0.009041
    65  C    0.431265
    66  H   -0.086267
    67  C   -0.273684
    68  H    0.045633
    69  H    0.051313
    70  H    0.049138
    71  C   -0.309049
    72  H    0.056422
    73  H    0.058678
    74  H    0.060473
 Sum of ESP charges =   0.00000

 Normal termination of Gaussian 09 at Mon Mar 20 13:01:43 2017.
