 Gaussian 09, Revision D.01,
 Gaussian 09:  EM64L-G09RevD.01 24-Apr-2013

 ----------------------------------------------------------------------
 #P HF/6-31G* SCF(Conver=6) NoSymm Test Pop=chelpg IOp(6/33=2) GFInput
 GFPrint
 ----------------------------------------------------------------------

 ----------------------------------------------
 MEP - Input generated by R.E.D.-III.x MOLECULE
 ----------------------------------------------
 Symbolic Z-matrix:
 Charge =  0 Multiplicity = 1

                          Input orientation:
 ---------------------------------------------------------------------
 Center     Atomic      Atomic             Coordinates (Angstroms)
 Number     Number       Type             X           Y           Z
 ---------------------------------------------------------------------
      1          8           0        0.441011   -3.395261    7.250600
      2          1           0        0.279726   -4.336670    7.103344
      3          6           0        1.507627    1.501511    0.000000
      4          6           0        1.103878    0.000000    0.000000
      5          1           0        0.000000    0.000000    0.000000
      6          6           0        1.517762   -0.794310    1.245757
      7          1           0        2.614712   -0.812123    1.314717
      8          6           0        0.938901   -0.120097    2.516935
      9          1           0       -0.154176   -0.246325    2.444993
     10          6           0        0.952722    1.933273   -1.402824
     11          1           0       -0.142220    1.987313   -1.292704
     12          6           0        0.829191    2.132009    1.234226
     13          1           0       -0.260890    2.087938    1.095861
     14          1           0        1.085249    3.190548    1.343432
     15          6           0        1.364439   -0.851679    3.838398
     16          6           0        1.535756   -0.510806   -1.382216
     17          1           0        0.974606   -1.396835   -1.695534
     18          1           0        2.595639   -0.794095   -1.376849
     19          6           0        1.212046    1.401562    2.538284
     20          1           0        2.272272    1.585958    2.741777
     21          1           0        0.662934    1.863352    3.366676
     22          6           0        1.285413    0.704017   -2.317044
     23          1           0        2.169968    0.913398   -2.930505
     24          1           0        0.467427    0.503091   -3.015287
     25          6           0        1.028664   -2.249065    1.157836
     26          1           0        1.633020   -2.807075    0.430309
     27          1           0        0.001256   -2.267542    0.757475
     28          6           0        1.404075    3.278399   -2.029372
     29          1           0        2.488743    3.218553   -2.208025
     30          6           0        3.039739    1.701839    0.054454
     31          1           0        3.288955    2.766875    0.105290
     32          1           0        3.490846    1.223564    0.927327
     33          1           0        3.537998    1.294011   -0.830336
     34          6           0        1.219566   -2.371011    3.672736
     35          6           0        0.412372   -0.395971    4.987967
     36          1           0       -0.621533   -0.456046    4.620350
     37          1           0        0.598920    0.658353    5.219423
     38          6           0        1.055227   -2.962025    2.480062
     39          1           0        0.933244   -4.045340    2.448093
     40          6           0        2.833189   -0.529489    4.223878
     41          1           0        2.946928    0.515669    4.528473
     42          1           0        3.173296   -1.145822    5.059761
     43          1           0        3.512044   -0.718900    3.386607
     44          6           0        1.268504   -3.200424    4.942466
     45          1           0        1.062818   -4.251276    4.701057
     46          1           0        2.271817   -3.169601    5.390431
     47          6           0        0.519012   -1.217417    6.281051
     48          1           0        1.506915   -1.101987    6.744154
     49          1           0       -0.214136   -0.860196    7.013144
     50          6           0        0.726836    3.479773   -3.408289
     51          1           0        0.849391    2.569706   -4.007311
     52          1           0       -0.355172    3.595734   -3.249404
     53          6           0        0.284649   -2.697508    6.008771
     54          1           0       -0.744883   -2.834308    5.638472
     55          6           0        1.139650    4.492051   -1.121088
     56          1           0        0.077828    4.555876   -0.851206
     57          1           0        1.411795    5.426749   -1.620213
     58          1           0        1.716051    4.447344   -0.194636
     59          6           0        1.266430    4.658633   -4.236370
     60          1           0        1.022319    5.612202   -3.754441
     61          1           0        2.364266    4.602693   -4.251194
     62          6           0        0.773168    4.680368   -5.695074
     63          1           0        1.094341    3.750428   -6.186366
     64          1           0        1.284460    5.496415   -6.227124
     65          6           0       -0.746666    4.843889   -5.910144
     66          1           0       -1.257868    4.019627   -5.392378
     67          6           0       -1.086087    4.729279   -7.404946
     68          1           0       -0.744206    3.774253   -7.820299
     69          1           0       -2.166436    4.801566   -7.574901
     70          1           0       -0.605092    5.532586   -7.977873
     71          6           0       -1.281829    6.165329   -5.336020
     72          1           0       -1.125577    6.239825   -4.254958
     73          1           0       -2.357563    6.264744   -5.520579
     74          1           0       -0.783698    7.023790   -5.805316
 ---------------------------------------------------------------------

 SCF Done:  E(RHF) =  -1124.07905774     A.U. after    9 cycles

 Alpha  occ. eigenvalues --  -20.55358 -11.27435 -11.23900 -11.22706 -11.22690
 Alpha  occ. eigenvalues --  -11.22402 -11.22376 -11.22316 -11.22141 -11.22077
 Alpha  occ. eigenvalues --  -11.22051 -11.21996 -11.21929 -11.21919 -11.21565
 Alpha  occ. eigenvalues --  -11.21559 -11.21503 -11.21458 -11.21457 -11.21397
 Alpha  occ. eigenvalues --  -11.21364 -11.21351 -11.21322 -11.21178 -11.21031
 Alpha  occ. eigenvalues --  -11.21028 -11.20934 -11.20846  -1.34660  -1.15864
 Alpha  occ. eigenvalues --   -1.13444  -1.09681  -1.08004  -1.06074  -1.05564
 Alpha  occ. eigenvalues --   -1.02663  -1.01346  -0.99581  -0.97747  -0.95805
 Alpha  occ. eigenvalues --   -0.92741  -0.92395  -0.91963  -0.90976  -0.90659
 Alpha  occ. eigenvalues --   -0.85966  -0.83741  -0.82266  -0.81737  -0.79030
 Alpha  occ. eigenvalues --   -0.76674  -0.76360  -0.74721  -0.73756  -0.71794
 Alpha  occ. eigenvalues --   -0.68979  -0.66843  -0.65140  -0.64320  -0.64155
 Alpha  occ. eigenvalues --   -0.63337  -0.62321  -0.61665  -0.60891  -0.60554
 Alpha  occ. eigenvalues --   -0.59368  -0.58920  -0.58408  -0.58093  -0.57373
 Alpha  occ. eigenvalues --   -0.56388  -0.56199  -0.55777  -0.55389  -0.54597
 Alpha  occ. eigenvalues --   -0.54167  -0.54040  -0.53504  -0.53108  -0.52897
 Alpha  occ. eigenvalues --   -0.52407  -0.52333  -0.51463  -0.51232  -0.50402
 Alpha  occ. eigenvalues --   -0.50263  -0.49777  -0.48843  -0.48361  -0.47853
 Alpha  occ. eigenvalues --   -0.47345  -0.47018  -0.46828  -0.46096  -0.45582
 Alpha  occ. eigenvalues --   -0.45164  -0.44732  -0.44300  -0.43970  -0.43598
 Alpha  occ. eigenvalues --   -0.43443  -0.43248  -0.42932  -0.42569  -0.41628
 Alpha  occ. eigenvalues --   -0.39794  -0.38453  -0.32787
 Alpha virt. eigenvalues --    0.18177   0.21111   0.22062   0.22296   0.22569
 Alpha virt. eigenvalues --    0.23449   0.24123   0.24626   0.24933   0.25897
 Alpha virt. eigenvalues --    0.26070   0.26506   0.27144   0.27407   0.27883

 Mulliken charges:
               1
     1  O   -0.765594
     2  H    0.433033
     3  C   -0.029147
     4  C   -0.158267
     5  H    0.151036
     6  C   -0.153674
     7  H    0.163632
     8  C   -0.154758
     9  H    0.155024
    10  C   -0.134770
    11  H    0.152277
    12  C   -0.298426
    13  H    0.151255
    14  H    0.163737
    15  C   -0.038358
    16  C   -0.316309
    17  H    0.165438
    18  H    0.158304
    19  C   -0.327702
    20  H    0.163903
    21  H    0.165952
    22  C   -0.335581
    23  H    0.160128
    24  H    0.167290
    25  C   -0.324497
    26  H    0.170182
    27  H    0.161224
    28  C   -0.149253
    29  H    0.152473
    30  C   -0.489005
    31  H    0.162885
    32  H    0.164765
    33  H    0.163873
    34  C    0.063538
    35  C   -0.326263
    36  H    0.160349
    37  H    0.169523
    38  C   -0.235053
    39  H    0.171961
    40  C   -0.480306
    41  H    0.162497
    42  H    0.168563
    43  H    0.165290
    44  C   -0.370722
    45  H    0.159886
    46  H    0.179326
    47  C   -0.327109
    48  H    0.171497
    49  H    0.178746
    50  C   -0.311592
    51  H    0.164342
    52  H    0.151131
    53  C    0.194463
    54  H    0.144548
    55  C   -0.485692
    56  H    0.152467
    57  H    0.164530
    58  H    0.162925
    59  C   -0.313020
    60  H    0.159098
    61  H    0.154354
    62  C   -0.298439
    63  H    0.151176
    64  H    0.150843
    65  C   -0.151845
    66  H    0.156876
    67  C   -0.471873
    68  H    0.157481
    69  H    0.157984
    70  H    0.152339
    71  C   -0.476811
    72  H    0.161612
    73  H    0.158261
    74  H    0.152049
 Sum of Mulliken charges =   0.00000

 Dipole moment (field-independent basis, Debye):
    X=             -0.2823    Y=             -0.4810    Z=             -1.5906  Tot=              1.6855
 Quadrupole moment (field-independent basis, Debye-Ang):
   XX=           -180.9184   YY=           -174.4403   ZZ=           -203.5836
   XY=              2.1545   XZ=             -3.2072   YZ=              2.0827

 ESP charges:
               1
     1  O   -0.758860
     2  H    0.424789
     3  C    0.627501
     4  C    0.003969
     5  H   -0.021215
     6  C    0.063475
     7  H   -0.034466
     8  C    0.003783
     9  H   -0.045626
    10  C   -0.177091
    11  H   -0.013879
    12  C   -0.233847
    13  H    0.010603
    14  H    0.030870
    15  C    0.464923
    16  C   -0.145792
    17  H    0.024553
    18  H    0.015306
    19  C    0.032415
    20  H   -0.016360
    21  H    0.002548
    22  C    0.015589
    23  H   -0.000183
    24  H    0.010751
    25  C    0.135097
    26  H   -0.009651
    27  H   -0.016956
    28  C    0.215505
    29  H   -0.034505
    30  C   -0.479073
    31  H    0.081005
    32  H    0.094355
    33  H    0.093831
    34  C   -0.170380
    35  C   -0.319644
    36  H    0.054647
    37  H    0.063504
    38  C   -0.302950
    39  H    0.136201
    40  C   -0.270103
    41  H    0.036994
    42  H    0.072925
    43  H    0.037626
    44  C   -0.098086
    45  H    0.030638
    46  H    0.039467
    47  C    0.035282
    48  H    0.019809
    49  H    0.026381
    50  C    0.061390
    51  H   -0.034205
    52  H   -0.006442
    53  C    0.442630
    54  H   -0.056861
    55  C   -0.363892
    56  H    0.070119
    57  H    0.074867
    58  H    0.080301
    59  C   -0.011082
    60  H    0.007249
    61  H   -0.002769
    62  C   -0.133950
    63  H    0.016785
    64  H    0.012702
    65  C    0.475329
    66  H   -0.100496
    67  C   -0.329950
    68  H    0.054007
    69  H    0.068187
    70  H    0.060586
    71  C   -0.314742
    72  H    0.058053
    73  H    0.056982
    74  H    0.059527
 Sum of ESP charges =   0.00000

 Normal termination of Gaussian 09 at Mon Mar 20 11:49:53 2017.
