 Gaussian 09, Revision D.01,
 Gaussian 09:  EM64L-G09RevD.01 24-Apr-2013

 ----------------------------------------------------------------------
 #P HF/6-31G* SCF(Conver=6) NoSymm Test Pop=chelpg IOp(6/33=2) GFInput
 GFPrint
 ----------------------------------------------------------------------

 ----------------------------------------------
 MEP - Input generated by R.E.D.-III.x MOLECULE
 ----------------------------------------------
 Symbolic Z-matrix:
 Charge =  0 Multiplicity = 1

                          Input orientation:
 ---------------------------------------------------------------------
 Center     Atomic      Atomic             Coordinates (Angstroms)
 Number     Number       Type             X           Y           Z
 ---------------------------------------------------------------------
      1          8           0        4.211520    6.548959    4.125617
      2          1           0        4.990965    6.899250    3.674268
      3          6           0        0.000000    0.000000    0.000000
      4          6           0        1.345103    0.619044   -0.473320
      5          1           0        2.126843    0.000000    0.000000
      6          6           0        1.612358    2.053780    0.000000
      7          1           0        0.848205    2.722076   -0.421782
      8          6           0        1.545979    2.117675    1.548558
      9          1           0        2.409332    1.531020    1.904058
     10          6           0        0.091969   -1.403589   -0.693328
     11          1           0        0.844232   -1.968018   -0.122588
     12          6           0        0.034468    0.009586    1.542021
     13          1           0        0.837618   -0.661413    1.879802
     14          1           0       -0.895387   -0.378000    1.970681
     15          6           0        1.761385    3.569104    2.104871
     16          6           0        1.401043    0.309484   -1.977481
     17          1           0        2.425819    0.288706   -2.361557
     18          1           0        0.864632    1.075292   -2.551504
     19          6           0        0.278491    1.426113    2.102678
     20          1           0       -0.602912    2.040819    1.891274
     21          1           0        0.342704    1.359431    3.194649
     22          6           0        0.698733   -1.071871   -2.097113
     23          1           0       -0.092217   -1.039796   -2.855713
     24          1           0        1.397696   -1.851342   -2.416195
     25          6           0        2.985930    2.545539   -0.484310
     26          1           0        2.952007    2.759134   -1.560956
     27          1           0        3.726480    1.736161   -0.371623
     28          6           0       -1.173577   -2.291291   -0.791094
     29          1           0       -1.919669   -1.732976   -1.375358
     30          6           0       -1.228727    0.778882   -0.522548
     31          1           0       -2.155037    0.347754   -0.128050
     32          1           0       -1.211294    1.830313   -0.225560
     33          1           0       -1.297259    0.753343   -1.614383
     34          6           0        2.937032    4.243676    1.383723
     35          6           0        2.113686    3.473097    3.622177
     36          1           0        2.888490    2.703611    3.745848
     37          1           0        1.237192    3.123470    4.178514
     38          6           0        3.470659    3.762625    0.251211
     39          1           0        4.322006    4.285277   -0.186401
     40          6           0        0.494162    4.446687    1.921997
     41          1           0       -0.323869    4.107171    2.565090
     42          1           0        0.689488    5.491422    2.176182
     43          1           0        0.146205    4.426970    0.884580
     44          6           0        3.488119    5.507190    2.018107
     45          1           0        4.376031    5.837547    1.463709
     46          1           0        2.756098    6.325052    1.958783
     47          6           0        2.617788    4.778880    4.253751
     48          1           0        1.836757    5.549404    4.249017
     49          1           0        2.884293    4.608865    5.303101
     50          6           0       -0.915035   -3.596830   -1.592194
     51          1           0       -1.877628   -4.119948   -1.689394
     52          1           0       -0.614581   -3.335879   -2.613204
     53          6           0        3.829230    5.316214    3.503041
     54          1           0        4.654504    4.590167    3.589893
     55          6           0       -1.813092   -2.613936    0.572614
     56          1           0       -1.083558   -3.016092    1.284219
     57          1           0       -2.608466   -3.359571    0.455476
     58          1           0       -2.263186   -1.729866    1.031001
     59          6           0        0.108589   -4.575723   -0.991846
     60          1           0        1.105337   -4.117602   -0.977489
     61          1           0       -0.145459   -4.770541    0.057558
     62          6           0        0.172414   -5.935460   -1.713721
     63          1           0       -0.824240   -6.398095   -1.669403
     64          1           0        0.840645   -6.602384   -1.148751
     65          6           0        0.638867   -5.925234   -3.185200
     66          1           0       -0.025152   -5.258811   -3.754010
     67          6           0        0.508284   -7.331506   -3.792142
     68          1           0       -0.521694   -7.700685   -3.727131
     69          1           0        0.801191   -7.338482   -4.848281
     70          1           0        1.152132   -8.046710   -3.264038
     71          6           0        2.076563   -5.404463   -3.340528
     72          1           0        2.184362   -4.375345   -2.983050
     73          1           0        2.388245   -5.422046   -4.391103
     74          1           0        2.779833   -6.029529   -2.774802
 ---------------------------------------------------------------------

 SCF Done:  E(RHF) =  -1124.07830561     A.U. after    9 cycles

 Alpha  occ. eigenvalues --  -20.55359 -11.27437 -11.23905 -11.22710 -11.22666
 Alpha  occ. eigenvalues --  -11.22410 -11.22374 -11.22329 -11.22143 -11.22060
 Alpha  occ. eigenvalues --  -11.22002 -11.21987 -11.21932 -11.21923 -11.21576
 Alpha  occ. eigenvalues --  -11.21540 -11.21493 -11.21467 -11.21465 -11.21399
 Alpha  occ. eigenvalues --  -11.21384 -11.21369 -11.21369 -11.21181 -11.21074
 Alpha  occ. eigenvalues --  -11.21033 -11.20943 -11.20904  -1.34662  -1.15881
 Alpha  occ. eigenvalues --   -1.13464  -1.09647  -1.07977  -1.06070  -1.05526
 Alpha  occ. eigenvalues --   -1.02671  -1.01293  -0.99567  -0.97731  -0.95836
 Alpha  occ. eigenvalues --   -0.92735  -0.92412  -0.91955  -0.91008  -0.90706
 Alpha  occ. eigenvalues --   -0.85968  -0.83923  -0.82516  -0.81786  -0.79058
 Alpha  occ. eigenvalues --   -0.76661  -0.76367  -0.75298  -0.72832  -0.71290
 Alpha  occ. eigenvalues --   -0.68992  -0.66894  -0.65074  -0.64304  -0.63744
 Alpha  occ. eigenvalues --   -0.63375  -0.63195  -0.61646  -0.61083  -0.60524
 Alpha  occ. eigenvalues --   -0.59320  -0.58727  -0.58447  -0.58042  -0.56886
 Alpha  occ. eigenvalues --   -0.56525  -0.56182  -0.55947  -0.55405  -0.54687
 Alpha  occ. eigenvalues --   -0.54289  -0.53680  -0.53473  -0.53150  -0.53055
 Alpha  occ. eigenvalues --   -0.52548  -0.52378  -0.51534  -0.51213  -0.50837
 Alpha  occ. eigenvalues --   -0.50313  -0.50240  -0.48546  -0.48445  -0.47777
 Alpha  occ. eigenvalues --   -0.47623  -0.47008  -0.46554  -0.46364  -0.45429
 Alpha  occ. eigenvalues --   -0.44968  -0.44806  -0.44210  -0.43905  -0.43654
 Alpha  occ. eigenvalues --   -0.43504  -0.42980  -0.42860  -0.42360  -0.41685
 Alpha  occ. eigenvalues --   -0.39806  -0.38538  -0.32791
 Alpha virt. eigenvalues --    0.18167   0.20197   0.21864   0.22511   0.22520
 Alpha virt. eigenvalues --    0.23396   0.23789   0.24291   0.24590   0.25564
 Alpha virt. eigenvalues --    0.26055   0.26670   0.27319   0.27492   0.28166

 Mulliken charges:
               1
     1  O   -0.765588
     2  H    0.433040
     3  C   -0.027807
     4  C   -0.157940
     5  H    0.150870
     6  C   -0.153684
     7  H    0.163614
     8  C   -0.154836
     9  H    0.155023
    10  C   -0.140781
    11  H    0.157798
    12  C   -0.298339
    13  H    0.151095
    14  H    0.163779
    15  C   -0.038292
    16  C   -0.316551
    17  H    0.165672
    18  H    0.158622
    19  C   -0.327830
    20  H    0.163979
    21  H    0.166005
    22  C   -0.338927
    23  H    0.160967
    24  H    0.168806
    25  C   -0.324469
    26  H    0.170202
    27  H    0.161226
    28  C   -0.147398
    29  H    0.156809
    30  C   -0.489861
    31  H    0.162466
    32  H    0.165159
    33  H    0.163905
    34  C    0.063486
    35  C   -0.326316
    36  H    0.160353
    37  H    0.169536
    38  C   -0.235066
    39  H    0.172003
    40  C   -0.480267
    41  H    0.162471
    42  H    0.168578
    43  H    0.165289
    44  C   -0.370713
    45  H    0.159905
    46  H    0.179325
    47  C   -0.327108
    48  H    0.171499
    49  H    0.178765
    50  C   -0.313531
    51  H    0.151926
    52  H    0.164514
    53  C    0.194459
    54  H    0.144553
    55  C   -0.486701
    56  H    0.157532
    57  H    0.157549
    58  H    0.162514
    59  C   -0.318531
    60  H    0.157043
    61  H    0.161132
    62  C   -0.297695
    63  H    0.151503
    64  H    0.150565
    65  C   -0.152302
    66  H    0.156846
    67  C   -0.471833
    68  H    0.157892
    69  H    0.157946
    70  H    0.152227
    71  C   -0.479158
    72  H    0.162442
    73  H    0.158471
    74  H    0.152161
 Sum of Mulliken charges =   0.00000

 Dipole moment (field-independent basis, Debye):
    X=              0.4233    Y=             -0.8436    Z=             -1.3388  Tot=              1.6380
 Quadrupole moment (field-independent basis, Debye-Ang):
   XX=           -173.4295   YY=           -192.0570   ZZ=           -190.9120
   XY=              2.0202   XZ=             -3.8913   YZ=            -12.4597

 ESP charges:
               1
     1  O   -0.764250
     2  H    0.425442
     3  C    0.501651
     4  C    0.031682
     5  H   -0.024466
     6  C    0.047722
     7  H   -0.032370
     8  C    0.001259
     9  H   -0.042371
    10  C   -0.000675
    11  H   -0.059697
    12  C   -0.182360
    13  H    0.002025
    14  H    0.022638
    15  C    0.489412
    16  C   -0.178117
    17  H    0.027876
    18  H    0.022189
    19  C    0.004029
    20  H   -0.007876
    21  H    0.006577
    22  C    0.043624
    23  H   -0.012172
    24  H   -0.006265
    25  C    0.178503
    26  H   -0.018727
    27  H   -0.027512
    28  C    0.194181
    29  H   -0.047837
    30  C   -0.432459
    31  H    0.075327
    32  H    0.086371
    33  H    0.080737
    34  C   -0.204070
    35  C   -0.274155
    36  H    0.033310
    37  H    0.043810
    38  C   -0.327837
    39  H    0.143439
    40  C   -0.262191
    41  H    0.030537
    42  H    0.069141
    43  H    0.034801
    44  C   -0.011555
    45  H    0.005497
    46  H    0.013246
    47  C    0.075252
    48  H    0.000177
    49  H    0.012013
    50  C   -0.015282
    51  H   -0.006294
    52  H   -0.028447
    53  C    0.437966
    54  H   -0.067672
    55  C   -0.315770
    56  H    0.052466
    57  H    0.072122
    58  H    0.065084
    59  C    0.082375
    60  H   -0.020789
    61  H   -0.003844
    62  C   -0.190018
    63  H    0.024929
    64  H    0.017867
    65  C    0.492242
    66  H   -0.093544
    67  C   -0.349752
    68  H    0.059702
    69  H    0.071056
    70  H    0.068861
    71  C   -0.320023
    72  H    0.065744
    73  H    0.054252
    74  H    0.061264
 Sum of ESP charges =   0.00000

 Normal termination of Gaussian 09 at Mon Mar 20 12:55:20 2017.
