 Gaussian 09, Revision D.01,
 Gaussian 09:  EM64L-G09RevD.01 24-Apr-2013

 ----------------------------------------------------------------------
 #P HF/6-31G* SCF(Conver=6) NoSymm Test Pop=chelpg IOp(6/33=2) GFInput
 GFPrint
 ----------------------------------------------------------------------

 ----------------------------------------------
 MEP - Input generated by R.E.D.-III.x MOLECULE
 ----------------------------------------------
 Symbolic Z-matrix:
 Charge =  0 Multiplicity = 1

                          Input orientation:
 ---------------------------------------------------------------------
 Center     Atomic      Atomic             Coordinates (Angstroms)
 Number     Number       Type             X           Y           Z
 ---------------------------------------------------------------------
      1          8           0        5.010807   -0.224734   -7.248131
      2          1           0        5.961945   -0.311081   -7.100394
      3          6           0        0.000000    0.000000    0.000000
      4          6           0        1.554898    0.000000    0.000000
      5          1           0        1.841222    1.066089    0.000000
      6          6           0        2.215285   -0.605249   -1.245899
      7          1           0        1.947867   -1.669212   -1.316191
      8          6           0        1.714825    0.130053   -2.516369
      9          1           0        2.118933    1.153344   -2.442389
     10          6           0       -0.272268    0.649085    1.402395
     11          1           0       -0.037794    1.719960    1.291794
     12          6           0       -0.432782    0.818014   -1.234900
     13          1           0       -0.108540    1.859741   -1.096762
     14          1           0       -1.521444    0.844268   -1.344837
     15          6           0        2.312348   -0.467687   -3.838480
     16          6           0        1.936139   -0.549284    1.382288
     17          1           0        2.937104   -0.236490    1.695845
     18          1           0        1.935557   -1.646392    1.376932
     19          6           0        0.174258    0.259101   -2.538468
     20          1           0       -0.277523   -0.717633   -2.741907
     21          1           0       -0.129775    0.908666   -3.367090
     22          6           0        0.827147    0.006986    2.316776
     23          1           0        0.394464   -0.794353    2.927561
     24          1           0        1.232364    0.743249    3.017265
     25          6           0        3.747068   -0.510333   -1.156653
     26          1           0        4.128716   -1.240716   -0.430830
     27          1           0        4.031065    0.475999   -0.753298
     28          6           0       -1.688985    0.566645    2.029769
     29          1           0       -1.912778   -0.496026    2.201476
     30          6           0       -0.592235   -1.427071   -0.053561
     31          1           0       -1.685481   -1.389858   -0.104421
     32          1           0       -0.248036   -1.987603   -0.926205
     33          1           0       -0.328173   -2.014037    0.831445
     34          6           0        3.817511   -0.719965   -3.672126
     35          6           0        2.118380    0.571677   -4.986366
     36          1           0        2.442619    1.554493   -4.616721
     37          1           0        1.051759    0.663704   -5.218408
     38          6           0        4.429867   -0.716879   -2.478889
     39          1           0        5.507911   -0.878844   -2.446416
     40          6           0        1.622502   -1.802978   -4.226578
     41          1           0        0.583749   -1.642840   -4.532218
     42          1           0        2.131383   -2.289365   -5.062477
     43          1           0        1.629394   -2.508817   -3.390246
     44          6           0        4.607457   -0.978441   -4.941714
     45          1           0        5.675616   -1.050893   -4.699524
     46          1           0        4.319515   -1.939114   -5.391703
     47          6           0        2.885581    0.259163   -6.279387
     48          1           0        2.519820   -0.664833   -6.744356
     49          1           0        2.729906    1.060857   -7.010225
     50          6           0       -1.693565    1.280558    3.406107
     51          1           0       -0.878827    0.881974    4.019785
     52          1           0       -1.451437    2.341268    3.241688
     53          6           0        4.375880    0.103769   -6.006199
     54          1           0        4.772956    1.062620   -5.633772
     55          6           0       -2.790153    1.141454    1.122459
     56          1           0       -2.578040    2.185570    0.859455
     57          1           0       -3.765580    1.117451    1.617429
     58          1           0       -2.892721    0.578102    0.192659
     59          6           0       -2.998617    1.209261    4.224391
     60          1           0       -2.845825    1.781091    5.148633
     61          1           0       -3.801508    1.734114    3.692508
     62          6           0       -3.500618   -0.204125    4.576092
     63          1           0       -3.750575   -0.740229    3.650443
     64          1           0       -4.447538   -0.105849    5.127482
     65          6           0       -2.549021   -1.089237    5.408797
     66          1           0       -1.605842   -1.198233    4.854128
     67          6           0       -3.146333   -2.495172    5.580906
     68          1           0       -3.350317   -2.964457    4.611523
     69          1           0       -2.466323   -3.152120    6.135228
     70          1           0       -4.092659   -2.452563    6.135374
     71          6           0       -2.220041   -0.472665    6.777803
     72          1           0       -1.717338    0.495449    6.685345
     73          1           0       -1.561746   -1.131456    7.355528
     74          1           0       -3.134764   -0.319121    7.365157
 ---------------------------------------------------------------------

 SCF Done:  E(RHF) =  -1124.07752137     A.U. after    9 cycles

 Alpha  occ. eigenvalues --  -20.55359 -11.27437 -11.23901 -11.22708 -11.22694
 Alpha  occ. eigenvalues --  -11.22474 -11.22332 -11.22317 -11.22143 -11.22086
 Alpha  occ. eigenvalues --  -11.22058 -11.22001 -11.21931 -11.21922 -11.21574
 Alpha  occ. eigenvalues --  -11.21560 -11.21482 -11.21478 -11.21461 -11.21399
 Alpha  occ. eigenvalues --  -11.21385 -11.21366 -11.21336 -11.21181 -11.21086
 Alpha  occ. eigenvalues --  -11.21064 -11.20957 -11.20837  -1.34662  -1.15871
 Alpha  occ. eigenvalues --   -1.13452  -1.09742  -1.07946  -1.06055  -1.05513
 Alpha  occ. eigenvalues --   -1.02669  -1.01330  -0.99447  -0.97750  -0.95791
 Alpha  occ. eigenvalues --   -0.92798  -0.92450  -0.91980  -0.91210  -0.90658
 Alpha  occ. eigenvalues --   -0.85970  -0.84175  -0.82341  -0.81751  -0.78756
 Alpha  occ. eigenvalues --   -0.76669  -0.76387  -0.74757  -0.73088  -0.71871
 Alpha  occ. eigenvalues --   -0.68983  -0.66833  -0.65069  -0.64337  -0.64009
 Alpha  occ. eigenvalues --   -0.63250  -0.63240  -0.61636  -0.60758  -0.60487
 Alpha  occ. eigenvalues --   -0.59110  -0.58834  -0.58621  -0.58071  -0.57433
 Alpha  occ. eigenvalues --   -0.56827  -0.56079  -0.55660  -0.55403  -0.54838
 Alpha  occ. eigenvalues --   -0.54443  -0.53681  -0.53321  -0.53116  -0.52715
 Alpha  occ. eigenvalues --   -0.52392  -0.52046  -0.51846  -0.51243  -0.50987
 Alpha  occ. eigenvalues --   -0.50168  -0.49742  -0.48808  -0.48336  -0.47781
 Alpha  occ. eigenvalues --   -0.47510  -0.47009  -0.46841  -0.46305  -0.45535
 Alpha  occ. eigenvalues --   -0.45306  -0.44495  -0.44228  -0.44168  -0.43621
 Alpha  occ. eigenvalues --   -0.43280  -0.43111  -0.42909  -0.42493  -0.41588
 Alpha  occ. eigenvalues --   -0.39801  -0.38478  -0.32789
 Alpha virt. eigenvalues --    0.18174   0.20321   0.21993   0.22170   0.22644
 Alpha virt. eigenvalues --    0.23031   0.24103   0.24428   0.24870   0.25789
 Alpha virt. eigenvalues --    0.26174   0.26519   0.26935   0.27500   0.27839

 Mulliken charges:
               1
     1  O   -0.765587
     2  H    0.433039
     3  C   -0.028659
     4  C   -0.158544
     5  H    0.151204
     6  C   -0.153529
     7  H    0.163571
     8  C   -0.154858
     9  H    0.155058
    10  C   -0.133865
    11  H    0.152574
    12  C   -0.298500
    13  H    0.151395
    14  H    0.163665
    15  C   -0.038295
    16  C   -0.316222
    17  H    0.165649
    18  H    0.158355
    19  C   -0.327635
    20  H    0.163808
    21  H    0.165997
    22  C   -0.339199
    23  H    0.162026
    24  H    0.167839
    25  C   -0.324563
    26  H    0.170183
    27  H    0.161280
    28  C   -0.154432
    29  H    0.156693
    30  C   -0.488964
    31  H    0.162454
    32  H    0.164898
    33  H    0.163636
    34  C    0.063472
    35  C   -0.326292
    36  H    0.160363
    37  H    0.169517
    38  C   -0.235026
    39  H    0.171966
    40  C   -0.480240
    41  H    0.162481
    42  H    0.168568
    43  H    0.165267
    44  C   -0.370682
    45  H    0.159897
    46  H    0.179319
    47  C   -0.327107
    48  H    0.171496
    49  H    0.178756
    50  C   -0.313708
    51  H    0.167844
    52  H    0.150795
    53  C    0.194445
    54  H    0.144551
    55  C   -0.485504
    56  H    0.153043
    57  H    0.164316
    58  H    0.162604
    59  C   -0.317665
    60  H    0.159352
    61  H    0.159244
    62  C   -0.302869
    63  H    0.155382
    64  H    0.151318
    65  C   -0.154478
    66  H    0.156668
    67  C   -0.471540
    68  H    0.157049
    69  H    0.158005
    70  H    0.152904
    71  C   -0.476768
    72  H    0.162114
    73  H    0.158258
    74  H    0.152413
 Sum of Mulliken charges =   0.00000

 Dipole moment (field-independent basis, Debye):
    X=              0.5248    Y=              0.2314    Z=              1.6023  Tot=              1.7018
 Quadrupole moment (field-independent basis, Debye-Ang):
   XX=           -171.7049   YY=           -181.5116   ZZ=           -202.9441
   XY=              0.2942   XZ=              4.0481   YZ=             -1.0193

 ESP charges:
               1
     1  O   -0.766453
     2  H    0.426215
     3  C    0.580565
     4  C    0.052731
     5  H   -0.032395
     6  C    0.012321
     7  H   -0.034635
     8  C    0.123706
     9  H   -0.074841
    10  C   -0.235207
    11  H   -0.008829
    12  C   -0.184842
    13  H   -0.006382
    14  H    0.022007
    15  C    0.394588
    16  C   -0.109271
    17  H    0.010792
    18  H    0.002586
    19  C    0.025632
    20  H   -0.022558
    21  H   -0.007732
    22  C    0.005762
    23  H    0.002683
    24  H    0.009626
    25  C    0.163323
    26  H   -0.011930
    27  H   -0.025456
    28  C    0.434798
    29  H   -0.084221
    30  C   -0.463095
    31  H    0.074748
    32  H    0.090319
    33  H    0.087912
    34  C   -0.138208
    35  C   -0.344671
    36  H    0.059924
    37  H    0.074513
    38  C   -0.332007
    39  H    0.140911
    40  C   -0.320398
    41  H    0.053246
    42  H    0.090143
    43  H    0.052488
    44  C   -0.064280
    45  H    0.017239
    46  H    0.026990
    47  C    0.064881
    48  H    0.013464
    49  H    0.018561
    50  C    0.001341
    51  H   -0.032001
    52  H   -0.017707
    53  C    0.453206
    54  H   -0.064799
    55  C   -0.410949
    56  H    0.065916
    57  H    0.092892
    58  H    0.076587
    59  C   -0.039022
    60  H    0.000656
    61  H    0.005126
    62  C   -0.062986
    63  H   -0.017366
    64  H   -0.003083
    65  C    0.496174
    66  H   -0.101156
    67  C   -0.394346
    68  H    0.070994
    69  H    0.083262
    70  H    0.075369
    71  C   -0.330886
    72  H    0.068243
    73  H    0.057534
    74  H    0.061738
 Sum of ESP charges =   0.00000

 Normal termination of Gaussian 09 at Mon Mar 20 13:07:15 2017.
