 Gaussian 09, Revision D.01,
 Gaussian 09:  EM64L-G09RevD.01 24-Apr-2013

 ----------------------------------------------------------------------
 #P HF/6-31G* SCF(Conver=6) NoSymm Test Pop=chelpg IOp(6/33=2) GFInput
 GFPrint
 ----------------------------------------------------------------------

 ----------------------------------------------
 MEP - Input generated by R.E.D.-III.x MOLECULE
 ----------------------------------------------
 Symbolic Z-matrix:
 Charge =  0 Multiplicity = 1

                          Input orientation:
 ---------------------------------------------------------------------
 Center     Atomic      Atomic             Coordinates (Angstroms)
 Number     Number       Type             X           Y           Z
 ---------------------------------------------------------------------
      1          8           0        4.996747   -0.221591   -7.254888
      2          1           0        5.947958   -0.310390   -7.109083
      3          6           0        0.000000    0.000000    0.000000
      4          6           0        1.554529    0.000000    0.000000
      5          1           0        1.840369    1.066155    0.000000
      6          6           0        2.212765   -0.603395   -1.247610
      7          1           0        1.945334   -1.667271   -1.319082
      8          6           0        1.710003    0.134408   -2.516201
      9          1           0        2.116021    1.156916   -2.441497
     10          6           0       -0.267892    0.645516    1.403832
     11          1           0       -0.014455    1.710318    1.293469
     12          6           0       -0.435997    0.821667   -1.230386
     13          1           0       -0.112265    1.863299   -1.090221
     14          1           0       -1.525479    0.846323   -1.335970
     15          6           0        2.304634   -0.462488   -3.840200
     16          6           0        1.937844   -0.550035    1.382785
     17          1           0        2.932994   -0.223350    1.700725
     18          1           0        1.954259   -1.647024    1.372919
     19          6           0        0.169292    0.266493   -2.536581
     20          1           0       -0.284508   -0.708561   -2.743328
     21          1           0       -0.133746    0.919459   -3.362912
     22          6           0        0.816031   -0.017007    2.317169
     23          1           0        0.375076   -0.835258    2.898567
     24          1           0        1.206220    0.700787    3.045729
     25          6           0        3.744659   -0.508496   -1.161420
     26          1           0        4.127690   -1.238655   -0.436102
     27          1           0        4.029352    0.478005   -0.758971
     28          6           0       -1.686858    0.571326    2.020311
     29          1           0       -1.938019   -0.493244    2.135494
     30          6           0       -0.594515   -1.425702   -0.058665
     31          1           0       -1.687935   -1.385482   -0.108446
     32          1           0       -0.252843   -1.982965   -0.934302
     33          1           0       -0.330568   -2.017531    0.823113
     34          6           0        3.809691   -0.717473   -3.676899
     35          6           0        2.110785    0.578856   -4.986342
     36          1           0        2.438338    1.560376   -4.616201
     37          1           0        1.043924    0.673779   -5.215995
     38          6           0        4.424622   -0.715561   -2.484996
     39          1           0        5.502502   -0.879063   -2.454890
     40          6           0        1.611659   -1.795940   -4.228993
     41          1           0        0.572945   -1.633243   -4.533406
     42          1           0        2.118632   -2.282669   -5.065814
     43          1           0        1.617752   -2.502609   -3.393337
     44          6           0        4.596583   -0.976423   -4.948263
     45          1           0        5.665086   -1.051075   -4.708261
     46          1           0        4.306014   -1.936145   -5.398572
     47          6           0        2.874490    0.265993   -6.281364
     48          1           0        2.505734   -0.656821   -6.746318
     49          1           0        2.719007    1.068717   -7.011110
     50          6           0       -1.736507    1.164928    3.453880
     51          1           0       -2.746937    0.988788    3.850024
     52          1           0       -1.059801    0.598726    4.106150
     53          6           0        4.365030    0.107168   -6.011382
     54          1           0        4.764872    1.064863   -5.638940
     55          6           0       -2.779952    1.205120    1.139439
     56          1           0       -2.519637    2.224742    0.834065
     57          1           0       -3.730003    1.254502    1.684686
     58          1           0       -2.958433    0.626361    0.229729
     59          6           0       -1.414157    2.662395    3.592216
     60          1           0       -0.395640    2.855235    3.233597
     61          1           0       -2.084546    3.244714    2.948685
     62          6           0       -1.547156    3.145564    5.045985
     63          1           0       -0.888104    2.535406    5.680708
     64          1           0       -2.571250    2.941607    5.390918
     65          6           0       -1.233059    4.636173    5.312746
     66          1           0       -1.387161    4.788009    6.391408
     67          6           0       -2.196885    5.585345    4.581478
     68          1           0       -3.242588    5.337516    4.798699
     69          1           0       -2.029263    6.623982    4.888706
     70          1           0       -2.061511    5.540561    3.494664
     71          6           0        0.231272    4.996817    5.011983
     72          1           0        0.923049    4.328394    5.538126
     73          1           0        0.453038    6.022522    5.328240
     74          1           0        0.452396    4.931050    3.940393
 ---------------------------------------------------------------------

 SCF Done:  E(RHF) =  -1124.07855138     A.U. after    9 cycles

 Alpha  occ. eigenvalues --  -20.55353 -11.27431 -11.23896 -11.22701 -11.22646
 Alpha  occ. eigenvalues --  -11.22527 -11.22329 -11.22318 -11.22137 -11.22047
 Alpha  occ. eigenvalues --  -11.21990 -11.21951 -11.21924 -11.21913 -11.21557
 Alpha  occ. eigenvalues --  -11.21510 -11.21457 -11.21441 -11.21412 -11.21393
 Alpha  occ. eigenvalues --  -11.21360 -11.21338 -11.21336 -11.21173 -11.21061
 Alpha  occ. eigenvalues --  -11.21030 -11.20926 -11.20893  -1.34656  -1.15864
 Alpha  occ. eigenvalues --   -1.13449  -1.09579  -1.07960  -1.06069  -1.05533
 Alpha  occ. eigenvalues --   -1.02655  -1.01292  -0.99557  -0.97707  -0.95819
 Alpha  occ. eigenvalues --   -0.92703  -0.92406  -0.91941  -0.90927  -0.90683
 Alpha  occ. eigenvalues --   -0.85960  -0.84391  -0.82561  -0.81770  -0.78792
 Alpha  occ. eigenvalues --   -0.76611  -0.76195  -0.74673  -0.73052  -0.71480
 Alpha  occ. eigenvalues --   -0.68985  -0.66873  -0.65019  -0.64292  -0.63890
 Alpha  occ. eigenvalues --   -0.63221  -0.62477  -0.62112  -0.61162  -0.60471
 Alpha  occ. eigenvalues --   -0.59507  -0.58865  -0.58555  -0.58212  -0.57552
 Alpha  occ. eigenvalues --   -0.56534  -0.56319  -0.55633  -0.55133  -0.54693
 Alpha  occ. eigenvalues --   -0.54514  -0.53653  -0.53273  -0.52881  -0.52550
 Alpha  occ. eigenvalues --   -0.52359  -0.51998  -0.51639  -0.51271  -0.51101
 Alpha  occ. eigenvalues --   -0.50351  -0.50182  -0.48509  -0.48228  -0.48127
 Alpha  occ. eigenvalues --   -0.47223  -0.47075  -0.46724  -0.46264  -0.45329
 Alpha  occ. eigenvalues --   -0.45051  -0.44715  -0.44523  -0.44093  -0.43597
 Alpha  occ. eigenvalues --   -0.43382  -0.42986  -0.42767  -0.42404  -0.41557
 Alpha  occ. eigenvalues --   -0.39788  -0.38513  -0.32781
 Alpha virt. eigenvalues --    0.18180   0.20753   0.21909   0.22392   0.22527
 Alpha virt. eigenvalues --    0.23324   0.23906   0.24527   0.24624   0.25613
 Alpha virt. eigenvalues --    0.25969   0.26584   0.27242   0.27631   0.28278

 Mulliken charges:
               1
     1  O   -0.765593
     2  H    0.433031
     3  C   -0.027347
     4  C   -0.158003
     5  H    0.150736
     6  C   -0.153676
     7  H    0.163610
     8  C   -0.154817
     9  H    0.154963
    10  C   -0.140845
    11  H    0.156647
    12  C   -0.298233
    13  H    0.150914
    14  H    0.163609
    15  C   -0.038287
    16  C   -0.316447
    17  H    0.165412
    18  H    0.158386
    19  C   -0.327806
    20  H    0.163990
    21  H    0.165937
    22  C   -0.335176
    23  H    0.161001
    24  H    0.166427
    25  C   -0.324453
    26  H    0.170209
    27  H    0.161196
    28  C   -0.147563
    29  H    0.157014
    30  C   -0.489818
    31  H    0.162385
    32  H    0.165059
    33  H    0.163947
    34  C    0.063496
    35  C   -0.326286
    36  H    0.160340
    37  H    0.169530
    38  C   -0.235048
    39  H    0.171964
    40  C   -0.480315
    41  H    0.162483
    42  H    0.168566
    43  H    0.165309
    44  C   -0.370716
    45  H    0.159887
    46  H    0.179310
    47  C   -0.327102
    48  H    0.171496
    49  H    0.178741
    50  C   -0.309321
    51  H    0.152753
    52  H    0.160227
    53  C    0.194455
    54  H    0.144541
    55  C   -0.485987
    56  H    0.157035
    57  H    0.157466
    58  H    0.162315
    59  C   -0.321438
    60  H    0.158816
    61  H    0.160963
    62  C   -0.300090
    63  H    0.150870
    64  H    0.151447
    65  C   -0.146088
    66  H    0.155375
    67  C   -0.476218
    68  H    0.156993
    69  H    0.158266
    70  H    0.155712
    71  C   -0.476194
    72  H    0.156418
    73  H    0.158513
    74  H    0.155106
 Sum of Mulliken charges =   0.00000

 Dipole moment (field-independent basis, Debye):
    X=              0.4508    Y=              0.1531    Z=              1.7023  Tot=              1.7676
 Quadrupole moment (field-independent basis, Debye-Ang):
   XX=           -171.5480   YY=           -181.6318   ZZ=           -201.7425
   XY=              0.5868   XZ=              3.3920   YZ=             -1.1693

 ESP charges:
               1
     1  O   -0.769167
     2  H    0.426322
     3  C    0.522554
     4  C    0.078397
     5  H   -0.030167
     6  C    0.057741
     7  H   -0.035965
     8  C   -0.089310
     9  H   -0.030079
    10  C   -0.026236
    11  H   -0.069273
    12  C   -0.185280
    13  H    0.004809
    14  H    0.017450
    15  C    0.580667
    16  C   -0.227381
    17  H    0.034461
    18  H    0.032328
    19  C    0.048096
    20  H   -0.016952
    21  H   -0.002269
    22  C    0.074952
    23  H   -0.016772
    24  H   -0.006282
    25  C    0.154104
    26  H   -0.011327
    27  H   -0.021198
    28  C    0.216796
    29  H   -0.037688
    30  C   -0.481433
    31  H    0.084378
    32  H    0.101298
    33  H    0.089524
    34  C   -0.215364
    35  C   -0.325155
    36  H    0.043874
    37  H    0.053425
    38  C   -0.324870
    39  H    0.145163
    40  C   -0.295258
    41  H    0.034477
    42  H    0.074560
    43  H    0.041430
    44  C   -0.013230
    45  H    0.005218
    46  H    0.011041
    47  C    0.097278
    48  H   -0.006818
    49  H    0.008236
    50  C   -0.110383
    51  H    0.014788
    52  H   -0.014369
    53  C    0.448501
    54  H   -0.073686
    55  C   -0.369200
    56  H    0.065599
    57  H    0.083038
    58  H    0.082062
    59  C    0.234505
    60  H   -0.033966
    61  H   -0.036342
    62  C   -0.221823
    63  H    0.024470
    64  H    0.021893
    65  C    0.414737
    66  H   -0.069775
    67  C   -0.321783
    68  H    0.062927
    69  H    0.065692
    70  H    0.059910
    71  C   -0.297442
    72  H    0.055237
    73  H    0.059115
    74  H    0.055190
 Sum of ESP charges =   0.00000

 Normal termination of Gaussian 09 at Mon Mar 20 11:41:40 2017.
