 Gaussian 09, Revision D.01,
 Gaussian 09:  EM64L-G09RevD.01 24-Apr-2013

 ----------------------------------------------------------------------
 #P HF/6-31G* SCF(Conver=6) NoSymm Test Pop=chelpg IOp(6/33=2) GFInput
 GFPrint
 ----------------------------------------------------------------------

 ----------------------------------------------
 MEP - Input generated by R.E.D.-III.x MOLECULE
 ----------------------------------------------
 Symbolic Z-matrix:
 Charge =  0 Multiplicity = 1

                          Input orientation:
 ---------------------------------------------------------------------
 Center     Atomic      Atomic             Coordinates (Angstroms)
 Number     Number       Type             X           Y           Z
 ---------------------------------------------------------------------
      1          8           0        4.205174    6.556810    4.122155
      2          1           0        4.986654    6.904618    3.672421
      3          6           0        0.000000    0.000000    0.000000
      4          6           0        1.345458    0.619177   -0.472136
      5          1           0        2.127984    0.000000    0.000000
      6          6           0        1.612910    2.054518    0.000000
      7          1           0        0.850808    2.723048   -0.425070
      8          6           0        1.542080    2.122383    1.547946
      9          1           0        2.403365    1.535478    1.908049
     10          6           0        0.090074   -1.406883   -0.687434
     11          1           0        0.824399   -1.985410   -0.104247
     12          6           0        0.030186    0.015626    1.542471
     13          1           0        0.833311   -0.653394    1.884275
     14          1           0       -0.899759   -0.371795    1.970660
     15          6           0        1.757267    3.575184    2.100947
     16          6           0        1.397899    0.309730   -1.975502
     17          1           0        2.419566    0.309606   -2.368297
     18          1           0        0.840591    1.063399   -2.545543
     19          6           0        0.271782    1.434095    2.098856
     20          1           0       -0.608375    2.048277    1.880745
     21          1           0        0.330618    1.371580    3.191377
     22          6           0        0.726287   -1.086797   -2.085025
     23          1           0       -0.043366   -1.092734   -2.865908
     24          1           0        1.456613   -1.850573   -2.368073
     25          6           0        2.988362    2.543770   -0.481849
     26          1           0        2.957338    2.755594   -1.558941
     27          1           0        3.727648    1.733672   -0.365978
     28          6           0       -1.181844   -2.285110   -0.806262
     29          1           0       -1.892778   -1.743518   -1.447630
     30          6           0       -1.225622    0.779052   -0.531298
     31          1           0       -2.154585    0.356445   -0.134811
     32          1           0       -1.203406    1.833235   -0.244548
     33          1           0       -1.292698    0.743253   -1.622901
     34          6           0        2.936191    4.246250    1.382114
     35          6           0        2.103704    3.483147    3.619868
     36          1           0        2.876650    2.712651    3.748686
     37          1           0        1.224565    3.136724    4.174022
     38          6           0        3.472718    3.761630    0.252495
     39          1           0        4.326247    4.281957   -0.183647
     40          6           0        0.491561    4.453436    1.910806
     41          1           0       -0.329910    4.114830    2.549993
     42          1           0        0.686268    5.498278    2.165022
     43          1           0        0.148905    4.432920    0.871618
     44          6           0        3.487091    5.510678    2.014918
     45          1           0        4.377351    5.838168    1.462585
     46          1           0        2.756496    6.329461    1.950901
     47          6           0        2.607841    4.789974    4.249378
     48          1           0        1.828122    5.561787    4.239624
     49          1           0        2.870282    4.622587    5.300177
     50          6           0       -0.860036   -3.640146   -1.508622
     51          1           0        0.128856   -3.593125   -1.976206
     52          1           0       -0.788393   -4.429487   -0.746614
     53          6           0        3.822822    5.323095    3.501496
     54          1           0        4.646474    4.595801    3.593140
     55          6           0       -1.871069   -2.547476    0.545845
     56          1           0       -1.160948   -2.966984    1.269281
     57          1           0       -2.686702   -3.267909    0.433091
     58          1           0       -2.295966   -1.640326    0.982889
     59          6           0       -1.859354   -4.076790   -2.597711
     60          1           0       -1.892384   -3.296701   -3.369826
     61          1           0       -1.460069   -4.975234   -3.090352
     62          6           0       -3.282394   -4.385671   -2.108051
     63          1           0       -3.745468   -3.477833   -1.695325
     64          1           0       -3.217929   -5.102137   -1.276387
     65          6           0       -4.226019   -4.970758   -3.179572
     66          1           0       -3.731041   -5.855069   -3.610276
     67          6           0       -4.504569   -3.982850   -4.324191
     68          1           0       -3.590500   -3.692621   -4.851677
     69          1           0       -5.185743   -4.421593   -5.062193
     70          1           0       -4.975429   -3.067933   -3.941209
     71          6           0       -5.543898   -5.437198   -2.540837
     72          1           0       -5.366235   -6.176063   -1.750974
     73          1           0       -6.207120   -5.893513   -3.284562
     74          1           0       -6.081156   -4.591955   -2.091671
 ---------------------------------------------------------------------

 SCF Done:  E(RHF) =  -1124.07577795     A.U. after    9 cycles

 Alpha  occ. eigenvalues --  -20.55351 -11.27427 -11.23890 -11.22698 -11.22644
 Alpha  occ. eigenvalues --  -11.22507 -11.22307 -11.22294 -11.22134 -11.22054
 Alpha  occ. eigenvalues --  -11.22044 -11.21988 -11.21920 -11.21911 -11.21646
 Alpha  occ. eigenvalues --  -11.21558 -11.21471 -11.21457 -11.21438 -11.21390
 Alpha  occ. eigenvalues --  -11.21373 -11.21336 -11.21332 -11.21168 -11.21062
 Alpha  occ. eigenvalues --  -11.21048 -11.20917 -11.20801  -1.34654  -1.15850
 Alpha  occ. eigenvalues --   -1.13424  -1.09611  -1.07976  -1.06050  -1.05516
 Alpha  occ. eigenvalues --   -1.02653  -1.01349  -0.99578  -0.97717  -0.95789
 Alpha  occ. eigenvalues --   -0.92729  -0.92397  -0.91966  -0.91203  -0.90636
 Alpha  occ. eigenvalues --   -0.85954  -0.83534  -0.81944  -0.81675  -0.78563
 Alpha  occ. eigenvalues --   -0.76642  -0.76376  -0.75838  -0.73815  -0.71817
 Alpha  occ. eigenvalues --   -0.68979  -0.66829  -0.64877  -0.64325  -0.63703
 Alpha  occ. eigenvalues --   -0.63390  -0.62643  -0.61196  -0.61009  -0.59602
 Alpha  occ. eigenvalues --   -0.59429  -0.59248  -0.58725  -0.58284  -0.57608
 Alpha  occ. eigenvalues --   -0.56614  -0.55992  -0.55633  -0.55300  -0.54575
 Alpha  occ. eigenvalues --   -0.54535  -0.53633  -0.53215  -0.52944  -0.52555
 Alpha  occ. eigenvalues --   -0.52395  -0.52199  -0.51667  -0.51205  -0.51122
 Alpha  occ. eigenvalues --   -0.50440  -0.50236  -0.48815  -0.48387  -0.47633
 Alpha  occ. eigenvalues --   -0.47109  -0.47003  -0.46684  -0.46074  -0.45314
 Alpha  occ. eigenvalues --   -0.45179  -0.44587  -0.44335  -0.44240  -0.43851
 Alpha  occ. eigenvalues --   -0.43402  -0.43137  -0.42909  -0.42311  -0.41658
 Alpha  occ. eigenvalues --   -0.39775  -0.38404  -0.32778
 Alpha virt. eigenvalues --    0.18187   0.21318   0.22124   0.22301   0.22648
 Alpha virt. eigenvalues --    0.23353   0.24036   0.24478   0.24935   0.25635
 Alpha virt. eigenvalues --    0.26240   0.26451   0.27165   0.27480   0.27723

 Mulliken charges:
               1
     1  O   -0.765610
     2  H    0.433022
     3  C   -0.029434
     4  C   -0.158035
     5  H    0.150976
     6  C   -0.153833
     7  H    0.163546
     8  C   -0.154710
     9  H    0.155005
    10  C   -0.142529
    11  H    0.153106
    12  C   -0.298229
    13  H    0.151097
    14  H    0.164352
    15  C   -0.038450
    16  C   -0.316769
    17  H    0.165529
    18  H    0.158428
    19  C   -0.327778
    20  H    0.163854
    21  H    0.165930
    22  C   -0.333669
    23  H    0.160703
    24  H    0.166377
    25  C   -0.324446
    26  H    0.170116
    27  H    0.161188
    28  C   -0.138621
    29  H    0.157020
    30  C   -0.489707
    31  H    0.162870
    32  H    0.164869
    33  H    0.163751
    34  C    0.063526
    35  C   -0.326290
    36  H    0.160351
    37  H    0.169551
    38  C   -0.235021
    39  H    0.171929
    40  C   -0.480163
    41  H    0.162516
    42  H    0.168507
    43  H    0.165248
    44  C   -0.370682
    45  H    0.159867
    46  H    0.179306
    47  C   -0.327107
    48  H    0.171467
    49  H    0.178745
    50  C   -0.319829
    51  H    0.165679
    52  H    0.154892
    53  C    0.194469
    54  H    0.144541
    55  C   -0.489004
    56  H    0.153943
    57  H    0.166606
    58  H    0.159208
    59  C   -0.307890
    60  H    0.154631
    61  H    0.152028
    62  C   -0.301802
    63  H    0.152599
    64  H    0.151568
    65  C   -0.146841
    66  H    0.151347
    67  C   -0.476637
    68  H    0.162750
    69  H    0.158499
    70  H    0.151388
    71  C   -0.472313
    72  H    0.157793
    73  H    0.158258
    74  H    0.152449
 Sum of Mulliken charges =   0.00000

 Dipole moment (field-independent basis, Debye):
    X=              0.5978    Y=             -1.0190    Z=             -1.3996  Tot=              1.8316
 Quadrupole moment (field-independent basis, Debye-Ang):
   XX=           -174.3023   YY=           -189.9290   ZZ=           -191.0792
   XY=              1.1578   XZ=             -4.4178   YZ=            -11.4194

 ESP charges:
               1
     1  O   -0.767289
     2  H    0.427036
     3  C    0.545125
     4  C    0.049380
     5  H   -0.026893
     6  C    0.024364
     7  H   -0.041821
     8  C   -0.008616
     9  H   -0.050159
    10  C   -0.181642
    11  H   -0.017936
    12  C   -0.136345
    13  H   -0.010486
    14  H    0.007600
    15  C    0.568458
    16  C   -0.077907
    17  H    0.001307
    18  H    0.003959
    19  C    0.009897
    20  H   -0.015108
    21  H    0.000752
    22  C   -0.049138
    23  H    0.003241
    24  H    0.035555
    25  C    0.207337
    26  H   -0.027301
    27  H   -0.036580
    28  C    0.325775
    29  H   -0.045581
    30  C   -0.468421
    31  H    0.073667
    32  H    0.098075
    33  H    0.093609
    34  C   -0.224926
    35  C   -0.316235
    36  H    0.038076
    37  H    0.049312
    38  C   -0.331741
    39  H    0.144256
    40  C   -0.298076
    41  H    0.035252
    42  H    0.076036
    43  H    0.040958
    44  C   -0.015751
    45  H    0.008608
    46  H    0.013719
    47  C    0.105480
    48  H   -0.008245
    49  H    0.006692
    50  C   -0.022444
    51  H   -0.013944
    52  H    0.002188
    53  C    0.433893
    54  H   -0.067477
    55  C   -0.335698
    56  H    0.056650
    57  H    0.059817
    58  H    0.070569
    59  C   -0.061326
    60  H    0.010944
    61  H    0.005972
    62  C   -0.008288
    63  H   -0.008733
    64  H    0.001798
    65  C    0.348711
    66  H   -0.061395
    67  C   -0.268399
    68  H    0.045146
    69  H    0.055193
    70  H    0.054217
    71  C   -0.344319
    72  H    0.060995
    73  H    0.080788
    74  H    0.067814
 Sum of ESP charges =   0.00000

 Normal termination of Gaussian 09 at Mon Mar 20 11:59:03 2017.
