 Gaussian 09, Revision D.01,
 Gaussian 09:  EM64L-G09RevD.01 24-Apr-2013

 ----------------------------------------------------------------------
 #P HF/6-31G* SCF(Conver=6) NoSymm Test Pop=chelpg IOp(6/33=2) GFInput
 GFPrint
 ----------------------------------------------------------------------

 ----------------------------------------------
 MEP - Input generated by R.E.D.-III.x MOLECULE
 ----------------------------------------------
 Symbolic Z-matrix:
 Charge =  0 Multiplicity = 1

                          Input orientation:
 ---------------------------------------------------------------------
 Center     Atomic      Atomic             Coordinates (Angstroms)
 Number     Number       Type             X           Y           Z
 ---------------------------------------------------------------------
      1          8           0        4.907591   -0.178043   -7.294550
      2          1           0        5.860167   -0.270498   -7.160405
      3          6           0        0.000000    0.000000    0.000000
      4          6           0        1.549870    0.000000    0.000000
      5          1           0        1.838340    1.065067    0.000000
      6          6           0        2.193958   -0.596762   -1.257164
      7          1           0        1.923686   -1.659309   -1.335313
      8          6           0        1.677615    0.156956   -2.514476
      9          1           0        2.094534    1.174639   -2.434698
     10          6           0       -0.259501    0.648754    1.395427
     11          1           0        0.073025    1.689718    1.271268
     12          6           0       -0.455727    0.842380   -1.204466
     13          1           0       -0.130450    1.881692   -1.051408
     14          1           0       -1.551007    0.865475   -1.283797
     15          6           0        2.254640   -0.433535   -3.849595
     16          6           0        1.928626   -0.549025    1.389281
     17          1           0        2.915331   -0.205300    1.715374
     18          1           0        1.965455   -1.645448    1.377815
     19          6           0        0.135497    0.309474   -2.526738
     20          1           0       -0.331926   -0.653316   -2.756849
     21          1           0       -0.158209    0.986059   -3.337051
     22          6           0        0.787382   -0.041195    2.325705
     23          1           0        0.344779   -0.877265    2.874381
     24          1           0        1.164145    0.657766    3.079688
     25          6           0        3.726557   -0.504337   -1.189118
     26          1           0        4.116376   -1.239540   -0.472438
     27          1           0        4.017225    0.479220   -0.783756
     28          6           0       -1.723439    0.746015    1.914896
     29          1           0       -2.365139    0.852857    1.026761
     30          6           0       -0.595683   -1.422497   -0.091278
     31          1           0       -1.690242   -1.379609   -0.082023
     32          1           0       -0.302448   -1.933172   -1.011679
     33          1           0       -0.281522   -2.058228    0.741322
     34          6           0        3.761003   -0.694598   -3.706177
     35          6           0        2.050079    0.614884   -4.987457
     36          1           0        2.383211    1.593712   -4.615084
     37          1           0        0.980993    0.712811   -5.204983
     38          6           0        4.390418   -0.703948   -2.521893
     39          1           0        5.467989   -0.871325   -2.506105
     40          6           0        1.553996   -1.763173   -4.238038
     41          1           0        0.512448   -1.596831   -4.530601
     42          1           0        2.050939   -2.246369   -5.082886
     43          1           0        1.567744   -2.474472   -3.406467
     44          6           0        4.531646   -0.947447   -4.988724
     45          1           0        5.602620   -1.027492   -4.761886
     46          1           0        4.232369   -1.903075   -5.442050
     47          6           0        2.798253    0.308681   -6.293097
     48          1           0        2.421592   -0.610037   -6.759873
     49          1           0        2.636337    1.116658   -7.015613
     50          6           0       -2.238502   -0.480754    2.705470
     51          1           0       -1.852591   -1.406831    2.267613
     52          1           0       -1.839716   -0.442386    3.729370
     53          6           0        4.291307    0.144068   -6.041607
     54          1           0        4.698245    1.098062   -5.667360
     55          6           0       -1.894761    2.030823    2.751400
     56          1           0       -1.225650    2.020731    3.620948
     57          1           0       -2.918024    2.143890    3.123613
     58          1           0       -1.658960    2.922710    2.160265
     59          6           0       -3.771580   -0.588029    2.768653
     60          1           0       -4.190819    0.326023    3.205822
     61          1           0       -4.162079   -0.646047    1.743589
     62          6           0       -4.240940   -1.808594    3.576453
     63          1           0       -3.822871   -1.739352    4.591207
     64          1           0       -3.803800   -2.714107    3.131022
     65          6           0       -5.769070   -2.015845    3.695075
     66          1           0       -5.903348   -2.926064    4.298196
     67          6           0       -6.439811   -2.272997    2.335418
     68          1           0       -5.951301   -3.094616    1.798341
     69          1           0       -7.494804   -2.540035    2.465490
     70          1           0       -6.404730   -1.385712    1.692804
     71          6           0       -6.466422   -0.870048    4.447075
     72          1           0       -5.996711   -0.687505    5.420803
     73          1           0       -7.521883   -1.106025    4.624719
     74          1           0       -6.432946    0.066564    3.878653
 ---------------------------------------------------------------------

 SCF Done:  E(RHF) =  -1124.07647344     A.U. after    9 cycles

 Alpha  occ. eigenvalues --  -20.55363 -11.27440 -11.23930 -11.22714 -11.22526
 Alpha  occ. eigenvalues --  -11.22414 -11.22413 -11.22361 -11.22146 -11.22073
 Alpha  occ. eigenvalues --  -11.21999 -11.21942 -11.21920 -11.21840 -11.21548
 Alpha  occ. eigenvalues --  -11.21527 -11.21520 -11.21470 -11.21452 -11.21435
 Alpha  occ. eigenvalues --  -11.21406 -11.21369 -11.21279 -11.21192 -11.21027
 Alpha  occ. eigenvalues --  -11.21023 -11.20961 -11.20921  -1.34666  -1.15898
 Alpha  occ. eigenvalues --   -1.13460  -1.09536  -1.07946  -1.06097  -1.05514
 Alpha  occ. eigenvalues --   -1.02636  -1.01380  -0.99676  -0.97756  -0.95730
 Alpha  occ. eigenvalues --   -0.92390  -0.92344  -0.91882  -0.91285  -0.90672
 Alpha  occ. eigenvalues --   -0.85974  -0.83878  -0.82492  -0.81913  -0.79383
 Alpha  occ. eigenvalues --   -0.76654  -0.76355  -0.74554  -0.72823  -0.71482
 Alpha  occ. eigenvalues --   -0.68980  -0.66855  -0.64625  -0.64426  -0.63879
 Alpha  occ. eigenvalues --   -0.63499  -0.62674  -0.61987  -0.60843  -0.60533
 Alpha  occ. eigenvalues --   -0.59605  -0.59066  -0.58569  -0.58436  -0.57630
 Alpha  occ. eigenvalues --   -0.56774  -0.56280  -0.55671  -0.55346  -0.54632
 Alpha  occ. eigenvalues --   -0.54003  -0.53373  -0.53194  -0.52925  -0.52460
 Alpha  occ. eigenvalues --   -0.52338  -0.51807  -0.51752  -0.51236  -0.50912
 Alpha  occ. eigenvalues --   -0.50575  -0.49739  -0.48627  -0.48436  -0.48096
 Alpha  occ. eigenvalues --   -0.47386  -0.47000  -0.46785  -0.46207  -0.45551
 Alpha  occ. eigenvalues --   -0.45156  -0.44608  -0.44537  -0.44429  -0.43702
 Alpha  occ. eigenvalues --   -0.43502  -0.42968  -0.42596  -0.41745  -0.41687
 Alpha  occ. eigenvalues --   -0.39809  -0.38644  -0.32792
 Alpha virt. eigenvalues --    0.18163   0.21001   0.22010   0.22248   0.22613
 Alpha virt. eigenvalues --    0.23369   0.23714   0.24250   0.24640   0.25482
 Alpha virt. eigenvalues --    0.26419   0.26746   0.27144   0.27564   0.27972

 Mulliken charges:
               1
     1  O   -0.765589
     2  H    0.433053
     3  C   -0.031066
     4  C   -0.157954
     5  H    0.150884
     6  C   -0.153694
     7  H    0.164093
     8  C   -0.155280
     9  H    0.155288
    10  C   -0.147981
    11  H    0.156334
    12  C   -0.296191
    13  H    0.151567
    14  H    0.157894
    15  C   -0.038221
    16  C   -0.318131
    17  H    0.165196
    18  H    0.158281
    19  C   -0.328384
    20  H    0.164730
    21  H    0.166671
    22  C   -0.329625
    23  H    0.168348
    24  H    0.164055
    25  C   -0.324070
    26  H    0.170213
    27  H    0.161217
    28  C   -0.143924
    29  H    0.157604
    30  C   -0.488804
    31  H    0.162380
    32  H    0.165688
    33  H    0.163967
    34  C    0.063283
    35  C   -0.326507
    36  H    0.160365
    37  H    0.169648
    38  C   -0.235028
    39  H    0.172073
    40  C   -0.480383
    41  H    0.162239
    42  H    0.168684
    43  H    0.165604
    44  C   -0.370778
    45  H    0.159950
    46  H    0.179305
    47  C   -0.327108
    48  H    0.171493
    49  H    0.178776
    50  C   -0.314176
    51  H    0.163929
    52  H    0.151803
    53  C    0.194482
    54  H    0.144580
    55  C   -0.482308
    56  H    0.154609
    57  H    0.161219
    58  H    0.158019
    59  C   -0.314924
    60  H    0.158576
    61  H    0.153635
    62  C   -0.300733
    63  H    0.151677
    64  H    0.150833
    65  C   -0.146346
    66  H    0.155424
    67  C   -0.476212
    68  H    0.156650
    69  H    0.158379
    70  H    0.155999
    71  C   -0.476439
    72  H    0.156893
    73  H    0.158512
    74  H    0.155755
 Sum of Mulliken charges =   0.00000

 Dipole moment (field-independent basis, Debye):
    X=              0.4966    Y=              0.1068    Z=              1.5908  Tot=              1.6699
 Quadrupole moment (field-independent basis, Debye-Ang):
   XX=           -171.8083   YY=           -181.2000   ZZ=           -202.2033
   XY=              0.7751   XZ=              3.2185   YZ=             -1.7182

 ESP charges:
               1
     1  O   -0.760803
     2  H    0.424318
     3  C    0.522841
     4  C    0.017855
     5  H   -0.031614
     6  C    0.107609
     7  H   -0.057111
     8  C   -0.052400
     9  H   -0.036088
    10  C   -0.044539
    11  H   -0.028835
    12  C   -0.238043
    13  H    0.013954
    14  H    0.029681
    15  C    0.491112
    16  C   -0.132148
    17  H    0.011208
    18  H    0.009849
    19  C    0.067250
    20  H   -0.018385
    21  H   -0.004138
    22  C    0.073123
    23  H   -0.039760
    24  H   -0.013159
    25  C    0.164870
    26  H   -0.017986
    27  H   -0.026804
    28  C    0.154018
    29  H   -0.045335
    30  C   -0.435516
    31  H    0.068292
    32  H    0.088002
    33  H    0.088435
    34  C   -0.189411
    35  C   -0.276281
    36  H    0.038334
    37  H    0.046917
    38  C   -0.327116
    39  H    0.142946
    40  C   -0.245749
    41  H    0.024952
    42  H    0.063681
    43  H    0.033995
    44  C   -0.043566
    45  H    0.015074
    46  H    0.021093
    47  C    0.047438
    48  H    0.010980
    49  H    0.018979
    50  C   -0.008297
    51  H    0.005882
    52  H   -0.001583
    53  C    0.442542
    54  H   -0.064392
    55  C   -0.325728
    56  H    0.070191
    57  H    0.072079
    58  H    0.071424
    59  C    0.087187
    60  H   -0.007161
    61  H   -0.021420
    62  C   -0.155283
    63  H    0.006272
    64  H    0.003075
    65  C    0.452040
    66  H   -0.088457
    67  C   -0.306420
    68  H    0.056742
    69  H    0.057857
    70  H    0.056436
    71  C   -0.301365
    72  H    0.054939
    73  H    0.057102
    74  H    0.054320
 Sum of ESP charges =   0.00000

 Normal termination of Gaussian 09 at Mon Mar 20 12:14:55 2017.
