 Gaussian 09, Revision D.01,
 Gaussian 09:  EM64L-G09RevD.01 24-Apr-2013

 ----------------------------------------------------------------------
 #P HF/6-31G* SCF(Conver=6) NoSymm Test Pop=chelpg IOp(6/33=2) GFInput
 GFPrint
 ----------------------------------------------------------------------

 ----------------------------------------------
 MEP - Input generated by R.E.D.-III.x MOLECULE
 ----------------------------------------------
 Symbolic Z-matrix:
 Charge =  0 Multiplicity = 1

                          Input orientation:
 ---------------------------------------------------------------------
 Center     Atomic      Atomic             Coordinates (Angstroms)
 Number     Number       Type             X           Y           Z
 ---------------------------------------------------------------------
      1          8           0       -3.743115   -3.605562   -4.119453
      2          1           0       -3.891296   -4.447998   -3.669686
      3          6           0        1.600878    2.064010    0.000000
      4          6           0        1.327304    0.608303    0.472152
      5          1           0        2.118300    0.000000    0.000000
      6          6           0        0.000000    0.000000    0.000000
      7          1           0       -0.833533    0.577514    0.424385
      8          6           0       -0.082572    0.050585   -1.547988
      9          1           0        0.694728   -0.644286   -1.907016
     10          6           0        2.986097    2.320597    0.690688
     11          1           0        3.726896    1.748605    0.109356
     12          6           0        1.595524    2.028302   -1.542588
     13          1           0        2.440433    1.411502   -1.881895
     14          1           0        1.745334    3.023447   -1.973006
     15          6           0       -1.440548   -0.509000   -2.100497
     16          6           0        1.639435    0.631813    1.975458
     17          1           0        1.890353   -0.358973    2.367200
     18          1           0        0.771844    0.986324    2.545719
     19          6           0        0.279240    1.448649   -2.100556
     20          1           0       -0.530287    2.154388   -1.885934
     21          1           0        0.356891    1.404551   -3.192805
     22          6           0        2.827869    1.625711    2.087384
     23          1           0        2.640531    2.373498    2.867298
     24          1           0        3.747937    1.106993    2.372699
     25          6           0       -0.141658   -1.452654    0.482783
     26          1           0       -0.354597   -1.473214    1.559898
     27          1           0        0.823226   -1.974029    0.367069
     28          6           0        3.529663    3.768702    0.803708
     29          1           0        2.834563    4.338174    1.439487
     30          6           0        0.546040    3.063812    0.528014
     31          1           0        0.732725    4.067879    0.133108
     32          1           0       -0.470277    2.787159    0.237215
     33          1           0        0.560482    3.136737    1.619754
     34          6           0       -1.806681   -1.814761   -1.380827
     35          6           0       -1.268049   -0.823593   -3.619315
     36          1           0       -0.333647   -1.387480   -3.748316
     37          1           0       -1.144676    0.113010   -4.173842
     38          6           0       -1.206370   -2.217571   -0.251130
     39          1           0       -1.504770   -3.171368    0.185575
     40          6           0       -2.598144    0.507607   -1.910600
     41          1           0       -2.468490    1.385460   -2.551368
     42          1           0       -3.565462    0.066233   -2.163054
     43          1           0       -2.659788    0.846805   -0.871915
     44          6           0       -2.900556   -2.655318   -2.012939
     45          1           0       -3.002877   -3.598158   -1.460261
     46          1           0       -3.871658   -2.144367   -1.948716
     47          6           0       -2.414587   -1.628740   -4.248049
     48          1           0       -3.351924   -1.058609   -4.238135
     49          1           0       -2.189173   -1.843399   -5.298849
     50          6           0        4.908984    3.777259    1.512263
     51          1           0        4.885952    3.083158    2.357805
     52          1           0        5.664824    3.382390    0.815461
     53          6           0       -2.638041   -2.936252   -3.499551
     54          1           0       -1.733366   -3.559837   -3.591398
     55          6           0        3.629385    4.484661   -0.555377
     56          1           0        4.215961    3.890363   -1.267066
     57          1           0        4.118909    5.458260   -0.456470
     58          1           0        2.648924    4.666061   -1.001392
     59          6           0        5.361750    5.153371    2.027729
     60          1           0        5.343846    5.883383    1.209567
     61          1           0        4.633682    5.516252    2.766021
     62          6           0        6.778147    5.172167    2.632625
     63          1           0        7.037676    6.211547    2.883215
     64          1           0        7.492049    4.861752    1.855913
     65          6           0        7.015983    4.303830    3.886599
     66          1           0        6.778836    3.260326    3.634624
     67          6           0        6.122544    4.719292    5.066087
     68          1           0        5.057438    4.617843    4.833851
     69          1           0        6.327223    4.102246    5.948420
     70          1           0        6.305316    5.765829    5.342975
     71          6           0        8.498375    4.352717    4.290421
     72          1           0        9.146894    4.022555    3.470742
     73          1           0        8.697113    3.709642    5.155417
     74          1           0        8.796747    5.374068    4.560089
 ---------------------------------------------------------------------

 SCF Done:  E(RHF) =  -1124.07866798     A.U. after    9 cycles

 Alpha  occ. eigenvalues --  -20.55358 -11.27435 -11.23901 -11.22709 -11.22686
 Alpha  occ. eigenvalues --  -11.22416 -11.22380 -11.22318 -11.22142 -11.22091
 Alpha  occ. eigenvalues --  -11.22056 -11.22000 -11.21929 -11.21922 -11.21573
 Alpha  occ. eigenvalues --  -11.21561 -11.21503 -11.21489 -11.21453 -11.21398
 Alpha  occ. eigenvalues --  -11.21354 -11.21340 -11.21325 -11.21179 -11.21051
 Alpha  occ. eigenvalues --  -11.21039 -11.20933 -11.20847  -1.34661  -1.15868
 Alpha  occ. eigenvalues --   -1.13447  -1.09664  -1.08004  -1.06073  -1.05569
 Alpha  occ. eigenvalues --   -1.02667  -1.01351  -0.99586  -0.97747  -0.95808
 Alpha  occ. eigenvalues --   -0.92733  -0.92414  -0.91962  -0.91001  -0.90667
 Alpha  occ. eigenvalues --   -0.85966  -0.83687  -0.82249  -0.81740  -0.79074
 Alpha  occ. eigenvalues --   -0.76663  -0.76348  -0.74752  -0.73868  -0.71764
 Alpha  occ. eigenvalues --   -0.68982  -0.66836  -0.64901  -0.64329  -0.63839
 Alpha  occ. eigenvalues --   -0.63315  -0.63211  -0.61677  -0.60797  -0.60519
 Alpha  occ. eigenvalues --   -0.59160  -0.58930  -0.58319  -0.58024  -0.57491
 Alpha  occ. eigenvalues --   -0.56565  -0.56141  -0.55766  -0.55339  -0.54601
 Alpha  occ. eigenvalues --   -0.54262  -0.53857  -0.53527  -0.53088  -0.52954
 Alpha  occ. eigenvalues --   -0.52341  -0.52321  -0.51534  -0.51257  -0.50844
 Alpha  occ. eigenvalues --   -0.50178  -0.49550  -0.48796  -0.48384  -0.47843
 Alpha  occ. eigenvalues --   -0.47278  -0.46919  -0.46684  -0.46305  -0.45506
 Alpha  occ. eigenvalues --   -0.45201  -0.44688  -0.44391  -0.44007  -0.43879
 Alpha  occ. eigenvalues --   -0.43443  -0.43219  -0.42927  -0.42421  -0.41606
 Alpha  occ. eigenvalues --   -0.39793  -0.38457  -0.32788
 Alpha virt. eigenvalues --    0.18176   0.20975   0.22047   0.22222   0.22596
 Alpha virt. eigenvalues --    0.23485   0.24179   0.24589   0.24724   0.25823
 Alpha virt. eigenvalues --    0.25997   0.26655   0.27099   0.27409   0.27953

 Mulliken charges:
               1
     1  O   -0.765596
     2  H    0.433033
     3  C   -0.029089
     4  C   -0.158055
     5  H    0.151024
     6  C   -0.153873
     7  H    0.163618
     8  C   -0.154748
     9  H    0.155048
    10  C   -0.135057
    11  H    0.152611
    12  C   -0.298321
    13  H    0.151096
    14  H    0.164069
    15  C   -0.038384
    16  C   -0.316068
    17  H    0.165518
    18  H    0.158438
    19  C   -0.327808
    20  H    0.163918
    21  H    0.165977
    22  C   -0.336275
    23  H    0.159798
    24  H    0.166774
    25  C   -0.324452
    26  H    0.170163
    27  H    0.161202
    28  C   -0.147531
    29  H    0.152862
    30  C   -0.489317
    31  H    0.162982
    32  H    0.164876
    33  H    0.163773
    34  C    0.063512
    35  C   -0.326308
    36  H    0.160349
    37  H    0.169557
    38  C   -0.235036
    39  H    0.171962
    40  C   -0.480233
    41  H    0.162496
    42  H    0.168557
    43  H    0.165287
    44  C   -0.370654
    45  H    0.159891
    46  H    0.179324
    47  C   -0.327104
    48  H    0.171487
    49  H    0.178759
    50  C   -0.315009
    51  H    0.171104
    52  H    0.147433
    53  C    0.194440
    54  H    0.144543
    55  C   -0.485241
    56  H    0.153810
    57  H    0.162827
    58  H    0.162472
    59  C   -0.313064
    60  H    0.158588
    61  H    0.153793
    62  C   -0.297049
    63  H    0.150890
    64  H    0.151956
    65  C   -0.152977
    66  H    0.155944
    67  C   -0.476279
    68  H    0.160796
    69  H    0.158235
    70  H    0.152302
    71  C   -0.471634
    72  H    0.157724
    73  H    0.157972
    74  H    0.152371
 Sum of Mulliken charges =   0.00000

 Dipole moment (field-independent basis, Debye):
    X=              0.9893    Y=             -0.3232    Z=              1.3014  Tot=              1.6664
 Quadrupole moment (field-independent basis, Debye-Ang):
   XX=           -188.3110   YY=           -174.9859   ZZ=           -191.4355
   XY=             -1.6238   XZ=             -9.0316   YZ=             -4.7169

 ESP charges:
               1
     1  O   -0.769247
     2  H    0.427013
     3  C    0.611273
     4  C    0.034104
     5  H   -0.037232
     6  C    0.036796
     7  H   -0.057057
     8  C    0.117092
     9  H   -0.079244
    10  C   -0.170441
    11  H   -0.017217
    12  C   -0.200208
    13  H    0.000767
    14  H    0.026022
    15  C    0.460420
    16  C   -0.095539
    17  H    0.005504
    18  H    0.003514
    19  C   -0.019190
    20  H   -0.011886
    21  H    0.010152
    22  C   -0.034118
    23  H    0.005943
    24  H    0.028334
    25  C    0.255003
    26  H   -0.037638
    27  H   -0.049437
    28  C    0.258576
    29  H   -0.043841
    30  C   -0.490702
    31  H    0.082482
    32  H    0.097295
    33  H    0.098432
    34  C   -0.185740
    35  C   -0.303239
    36  H    0.037367
    37  H    0.047636
    38  C   -0.370615
    39  H    0.148835
    40  C   -0.308652
    41  H    0.043139
    42  H    0.083421
    43  H    0.045838
    44  C   -0.001383
    45  H    0.003231
    46  H    0.009400
    47  C    0.114993
    48  H   -0.007978
    49  H    0.002756
    50  C    0.023817
    51  H   -0.028158
    52  H   -0.007174
    53  C    0.435208
    54  H   -0.069783
    55  C   -0.379957
    56  H    0.073313
    57  H    0.082775
    58  H    0.079480
    59  C    0.000558
    60  H    0.006780
    61  H   -0.016478
    62  C   -0.113333
    63  H    0.010471
    64  H    0.006686
    65  C    0.460751
    66  H   -0.089187
    67  C   -0.276497
    68  H    0.054368
    69  H    0.044794
    70  H    0.051569
    71  C   -0.375886
    72  H    0.067957
    73  H    0.080612
    74  H    0.072579
 Sum of ESP charges =   0.00000

 Normal termination of Gaussian 09 at Mon Mar 20 13:05:22 2017.
