 Gaussian 09, Revision D.01,
 Gaussian 09:  EM64L-G09RevD.01 24-Apr-2013

 ----------------------------------------------------------------------
 #P HF/6-31G* SCF(Conver=6) NoSymm Test Pop=chelpg IOp(6/33=2) GFInput
 GFPrint
 ----------------------------------------------------------------------

 ----------------------------------------------
 MEP - Input generated by R.E.D.-III.x MOLECULE
 ----------------------------------------------
 Symbolic Z-matrix:
 Charge =  0 Multiplicity = 1

                          Input orientation:
 ---------------------------------------------------------------------
 Center     Atomic      Atomic             Coordinates (Angstroms)
 Number     Number       Type             X           Y           Z
 ---------------------------------------------------------------------
      1          8           0        4.154270    6.547680    4.147189
      2          1           0        4.930217    6.907302    3.697168
      3          6           0        0.000000    0.000000    0.000000
      4          6           0        1.341360    0.613059   -0.476930
      5          1           0        2.125100    0.000000    0.000000
      6          6           0        1.599062    2.047500    0.000000
      7          1           0        0.832419    2.714049   -0.419550
      8          6           0        1.530497    2.100592    1.551561
      9          1           0        2.401937    1.522293    1.900898
     10          6           0        0.099787   -1.401952   -0.678512
     11          1           0        0.913485   -1.902440   -0.133618
     12          6           0        0.028938   -0.016894    1.538488
     13          1           0        0.831588   -0.692153    1.868988
     14          1           0       -0.907045   -0.417382    1.950807
     15          6           0        1.732558    3.552311    2.113930
     16          6           0        1.393774    0.285797   -1.981945
     17          1           0        2.420118    0.237291   -2.359267
     18          1           0        0.879978    1.059014   -2.566559
     19          6           0        0.273155    1.392759    2.117382
     20          1           0       -0.614666    2.005564    1.931457
     21          1           0        0.358649    1.312059    3.206800
     22          6           0        0.654886   -1.084109   -2.102727
     23          1           0       -0.149893   -1.017269   -2.839876
     24          1           0        1.325982   -1.876877   -2.449390
     25          6           0        2.970983    2.549863   -0.476885
     26          1           0        2.939589    2.764599   -1.553453
     27          1           0        3.716709    1.745505   -0.362412
     28          6           0       -1.113315   -2.374648   -0.580076
     29          1           0       -1.609358   -2.154501    0.375715
     30          6           0       -1.227027    0.794103   -0.500206
     31          1           0       -2.152770    0.333826   -0.139792
     32          1           0       -1.221697    1.827211   -0.144304
     33          1           0       -1.278905    0.832028   -1.592047
     34          6           0        2.902595    4.240673    1.396345
     35          6           0        2.084495    3.454485    3.631317
     36          1           0        2.865112    2.690607    3.753132
     37          1           0        1.210304    3.096420    4.185809
     38          6           0        3.442971    3.769061    0.263045
     39          1           0        4.289865    4.301717   -0.171093
     40          6           0        0.457557    4.419160    1.932967
     41          1           0       -0.358409    4.069587    2.573269
     42          1           0        0.643149    5.464412    2.192221
     43          1           0        0.111488    4.400868    0.894907
     44          6           0        3.440318    5.507450    2.035644
     45          1           0        4.324545    5.849318    1.482371
     46          1           0        2.699693    6.317737    1.979829
     47          6           0        2.577502    4.762115    4.268128
     48          1           0        1.789599    5.525663    4.267107
     49          1           0        2.845712    4.589848    5.316681
     50          6           0       -2.166439   -2.239879   -1.707463
     51          1           0       -2.342403   -1.184134   -1.939323
     52          1           0       -1.751207   -2.684168   -2.622173
     53          6           0        3.783766    5.313866    3.519572
     54          1           0        4.615967    4.595422    3.603449
     55          6           0       -0.604926   -3.828917   -0.498655
     56          1           0       -0.036539   -4.094018   -1.399114
     57          1           0       -1.425526   -4.547107   -0.403886
     58          1           0        0.054919   -3.968752    0.364758
     59          6           0       -3.534273   -2.898934   -1.429431
     60          1           0       -4.095057   -2.908081   -2.372458
     61          1           0       -3.392838   -3.951201   -1.155191
     62          6           0       -4.371057   -2.184348   -0.354603
     63          1           0       -4.478656   -1.128102   -0.641652
     64          1           0       -3.823669   -2.185806    0.597403
     65          6           0       -5.783261   -2.759122   -0.090365
     66          1           0       -6.222384   -2.127076    0.695767
     67          6           0       -5.745878   -4.196216    0.455929
     68          1           0       -5.096079   -4.272053    1.335770
     69          1           0       -6.748099   -4.526572    0.751935
     70          1           0       -5.377234   -4.904947   -0.294547
     71          6           0       -6.706624   -2.658168   -1.315989
     72          1           0       -6.741043   -1.634235   -1.706519
     73          1           0       -7.730458   -2.950823   -1.056486
     74          1           0       -6.376050   -3.315360   -2.128461
 ---------------------------------------------------------------------

 SCF Done:  E(RHF) =  -1124.07416196     A.U. after    9 cycles

 Alpha  occ. eigenvalues --  -20.55359 -11.27435 -11.23924 -11.22707 -11.22570
 Alpha  occ. eigenvalues --  -11.22405 -11.22392 -11.22314 -11.22139 -11.22057
 Alpha  occ. eigenvalues --  -11.21987 -11.21938 -11.21912 -11.21837 -11.21540
 Alpha  occ. eigenvalues --  -11.21535 -11.21505 -11.21468 -11.21463 -11.21432
 Alpha  occ. eigenvalues --  -11.21404 -11.21349 -11.21347 -11.21185 -11.21059
 Alpha  occ. eigenvalues --  -11.21035 -11.20936 -11.20853  -1.34661  -1.15882
 Alpha  occ. eigenvalues --   -1.13444  -1.09543  -1.07904  -1.06073  -1.05464
 Alpha  occ. eigenvalues --   -1.02622  -1.01333  -0.99538  -0.97735  -0.95701
 Alpha  occ. eigenvalues --   -0.92416  -0.92334  -0.91859  -0.91399  -0.90687
 Alpha  occ. eigenvalues --   -0.85968  -0.84335  -0.82505  -0.81895  -0.79230
 Alpha  occ. eigenvalues --   -0.76641  -0.76395  -0.74485  -0.72506  -0.71489
 Alpha  occ. eigenvalues --   -0.68979  -0.66847  -0.64713  -0.64448  -0.63670
 Alpha  occ. eigenvalues --   -0.62999  -0.62879  -0.61833  -0.61121  -0.60536
 Alpha  occ. eigenvalues --   -0.59463  -0.58891  -0.58710  -0.58451  -0.57742
 Alpha  occ. eigenvalues --   -0.56651  -0.56097  -0.55692  -0.55467  -0.54684
 Alpha  occ. eigenvalues --   -0.54078  -0.53696  -0.53279  -0.52993  -0.52471
 Alpha  occ. eigenvalues --   -0.52339  -0.52129  -0.51767  -0.51234  -0.50862
 Alpha  occ. eigenvalues --   -0.50417  -0.49786  -0.48927  -0.48490  -0.47962
 Alpha  occ. eigenvalues --   -0.47568  -0.47171  -0.46622  -0.46056  -0.45443
 Alpha  occ. eigenvalues --   -0.45149  -0.44617  -0.44570  -0.43713  -0.43675
 Alpha  occ. eigenvalues --   -0.43328  -0.42945  -0.42496  -0.42232  -0.41505
 Alpha  occ. eigenvalues --   -0.39800  -0.38610  -0.32785
 Alpha virt. eigenvalues --    0.18169   0.20939   0.21950   0.22257   0.22620
 Alpha virt. eigenvalues --    0.23635   0.23719   0.23898   0.24761   0.25631
 Alpha virt. eigenvalues --    0.26204   0.26681   0.26761   0.27340   0.28193

 Mulliken charges:
               1
     1  O   -0.765601
     2  H    0.433044
     3  C   -0.030998
     4  C   -0.157836
     5  H    0.150865
     6  C   -0.153888
     7  H    0.164178
     8  C   -0.155179
     9  H    0.155247
    10  C   -0.146679
    11  H    0.156187
    12  C   -0.296157
    13  H    0.151403
    14  H    0.157124
    15  C   -0.038352
    16  C   -0.317954
    17  H    0.165055
    18  H    0.158285
    19  C   -0.328252
    20  H    0.164926
    21  H    0.166498
    22  C   -0.329730
    23  H    0.167921
    24  H    0.163902
    25  C   -0.323971
    26  H    0.170199
    27  H    0.161189
    28  C   -0.149018
    29  H    0.162954
    30  C   -0.491611
    31  H    0.166067
    32  H    0.165078
    33  H    0.163478
    34  C    0.063344
    35  C   -0.326415
    36  H    0.160363
    37  H    0.169581
    38  C   -0.235067
    39  H    0.172050
    40  C   -0.480355
    41  H    0.162293
    42  H    0.168634
    43  H    0.165594
    44  C   -0.370757
    45  H    0.159935
    46  H    0.179282
    47  C   -0.327099
    48  H    0.171474
    49  H    0.178737
    50  C   -0.317943
    51  H    0.163101
    52  H    0.155479
    53  C    0.194452
    54  H    0.144578
    55  C   -0.482684
    56  H    0.154287
    57  H    0.161408
    58  H    0.157885
    59  C   -0.317274
    60  H    0.159786
    61  H    0.158234
    62  C   -0.306146
    63  H    0.151479
    64  H    0.153893
    65  C   -0.145534
    66  H    0.155254
    67  C   -0.476588
    68  H    0.156486
    69  H    0.158772
    70  H    0.156225
    71  C   -0.476753
    72  H    0.156815
    73  H    0.158553
    74  H    0.156268
 Sum of Mulliken charges =   0.00000

 Dipole moment (field-independent basis, Debye):
    X=              0.4487    Y=             -0.8474    Z=             -1.2697  Tot=              1.5910
 Quadrupole moment (field-independent basis, Debye-Ang):
   XX=           -173.4838   YY=           -191.1741   ZZ=           -190.7853
   XY=              1.6160   XZ=             -4.5786   YZ=            -11.9473

 ESP charges:
               1
     1  O   -0.767094
     2  H    0.426982
     3  C    0.461954
     4  C    0.071778
     5  H   -0.025573
     6  C    0.093534
     7  H   -0.048198
     8  C   -0.068345
     9  H   -0.040857
    10  C   -0.125665
    11  H   -0.009794
    12  C   -0.264070
    13  H    0.020802
    14  H    0.032837
    15  C    0.562530
    16  C   -0.231053
    17  H    0.036032
    18  H    0.034593
    19  C    0.128795
    20  H   -0.033161
    21  H   -0.018439
    22  C    0.126688
    23  H   -0.036674
    24  H   -0.019477
    25  C    0.131374
    26  H   -0.008777
    27  H   -0.018551
    28  C    0.272928
    29  H   -0.037995
    30  C   -0.411209
    31  H    0.063918
    32  H    0.087519
    33  H    0.082071
    34  C   -0.221728
    35  C   -0.304732
    36  H    0.040450
    37  H    0.048006
    38  C   -0.312301
    39  H    0.144986
    40  C   -0.305738
    41  H    0.036638
    42  H    0.078517
    43  H    0.045333
    44  C   -0.023682
    45  H    0.007856
    46  H    0.016664
    47  C    0.068813
    48  H    0.002052
    49  H    0.016508
    50  C   -0.064623
    51  H    0.024358
    52  H   -0.010644
    53  C    0.444311
    54  H   -0.067388
    55  C   -0.362747
    56  H    0.076669
    57  H    0.081589
    58  H    0.069488
    59  C    0.055515
    60  H   -0.014355
    61  H   -0.007522
    62  C   -0.117661
    63  H   -0.002564
    64  H    0.001658
    65  C    0.443938
    66  H   -0.093276
    67  C   -0.269050
    68  H    0.043899
    69  H    0.049381
    70  H    0.047164
    71  C   -0.309614
    72  H    0.057046
    73  H    0.058003
    74  H    0.059379
 Sum of ESP charges =   0.00000

 Normal termination of Gaussian 09 at Mon Mar 20 12:21:25 2017.
