 Gaussian 09, Revision D.01,
 Gaussian 09:  EM64L-G09RevD.01 24-Apr-2013

 ----------------------------------------------------------------------
 #P HF/6-31G* SCF(Conver=6) NoSymm Test Pop=chelpg IOp(6/33=2) GFInput
 GFPrint
 ----------------------------------------------------------------------

 ----------------------------------------------
 MEP - Input generated by R.E.D.-III.x MOLECULE
 ----------------------------------------------
 Symbolic Z-matrix:
 Charge =  0 Multiplicity = 1

                          Input orientation:
 ---------------------------------------------------------------------
 Center     Atomic      Atomic             Coordinates (Angstroms)
 Number     Number       Type             X           Y           Z
 ---------------------------------------------------------------------
      1          8           0       -3.712757   -3.598515   -4.154191
      2          1           0       -3.866027   -4.440728   -3.705716
      3          6           0        1.585572    2.058035    0.000000
      4          6           0        1.325232    0.606496    0.477014
      5          1           0        2.114053    0.000000    0.000000
      6          6           0        0.000000    0.000000    0.000000
      7          1           0       -0.836326    0.577085    0.419198
      8          6           0       -0.067920    0.053254   -1.551734
      9          1           0        0.710240   -0.645686   -1.900757
     10          6           0        2.968795    2.310095    0.677477
     11          1           0        3.658025    1.651003    0.129707
     12          6           0        1.608154    2.034836   -1.538467
     13          1           0        2.461367    1.425141   -1.869625
     14          1           0        1.763505    3.041098   -1.950464
     15          6           0       -1.422291   -0.505351   -2.115371
     16          6           0        1.656137    0.636896    1.981812
     17          1           0        1.955932   -0.345706    2.359544
     18          1           0        0.780801    0.945061    2.567012
     19          6           0        0.303304    1.447813   -2.116687
     20          1           0       -0.511690    2.154265   -1.929340
     21          1           0        0.401723    1.386260   -3.206234
     22          6           0        2.802466    1.689924    2.100576
     23          1           0        2.543136    2.451927    2.840737
     24          1           0        3.737260    1.233334    2.442218
     25          6           0       -0.145285   -1.453743    0.477104
     26          1           0       -0.363447   -1.476508    1.553211
     27          1           0        0.820030   -1.975119    0.365133
     28          6           0        3.598615    3.730762    0.583752
     29          1           0        3.252929    4.165565   -0.366730
     30          6           0        0.512985    3.050539    0.500976
     31          1           0        0.733427    4.063063    0.145670
     32          1           0       -0.485796    2.794020    0.139719
     33          1           0        0.458804    3.086437    1.592716
     34          6           0       -1.795991   -1.811306   -1.399324
     35          6           0       -1.238431   -0.819625   -3.633015
     36          1           0       -0.303335   -1.383930   -3.755078
     37          1           0       -1.110525    0.116960   -4.186457
     38          6           0       -1.206050   -2.216086   -0.264892
     39          1           0       -1.509987   -3.169549    0.168638
     40          6           0       -2.581443    0.511087   -1.933887
     41          1           0       -2.448234    1.388939   -2.573902
     42          1           0       -3.546578    0.068931   -2.193130
     43          1           0       -2.650725    0.850169   -0.895695
     44          6           0       -2.886348   -2.649524   -2.040735
     45          1           0       -2.995193   -3.592169   -1.488997
     46          1           0       -3.856961   -2.136605   -1.984713
     47          6           0       -2.380545   -1.623567   -4.271262
     48          1           0       -3.317280   -1.052340   -4.269117
     49          1           0       -2.146554   -1.838108   -5.320212
     50          6           0        3.199381    4.715940    1.708638
     51          1           0        2.141137    4.594158    1.963114
     52          1           0        3.760233    4.460526    2.617359
     53          6           0       -2.611901   -2.930929   -3.525054
     54          1           0       -1.707343   -3.555781   -3.609413
     55          6           0        5.134288    3.615618    0.492962
     56          1           0        5.542193    3.130589    1.388750
     57          1           0        5.613823    4.595207    0.399696
     58          1           0        5.435316    3.018331   -0.374829
     59          6           0        3.431656    6.194738    1.353603
     60          1           0        4.493776    6.375209    1.148995
     61          1           0        2.906635    6.413304    0.412937
     62          6           0        2.932536    7.190053    2.417217
     63          1           0        1.853544    7.034445    2.561908
     64          1           0        3.040402    8.210623    2.020702
     65          6           0        3.620950    7.137037    3.798003
     66          1           0        3.500525    6.122751    4.204785
     67          6           0        2.931926    8.107188    4.771153
     68          1           0        1.863730    7.882322    4.870417
     69          1           0        3.380054    8.054705    5.769983
     70          1           0        3.022707    9.143300    4.420266
     71          6           0        5.126260    7.436005    3.715155
     72          1           0        5.658457    6.709657    3.092496
     73          1           0        5.584640    7.414387    4.710415
     74          1           0        5.302208    8.432809    3.289998
 ---------------------------------------------------------------------

 SCF Done:  E(RHF) =  -1124.07645576     A.U. after    9 cycles

 Alpha  occ. eigenvalues --  -20.55370 -11.27447 -11.23940 -11.22725 -11.22434
 Alpha  occ. eigenvalues --  -11.22426 -11.22415 -11.22400 -11.22154 -11.22089
 Alpha  occ. eigenvalues --  -11.22013 -11.21951 -11.21931 -11.21869 -11.21574
 Alpha  occ. eigenvalues --  -11.21560 -11.21547 -11.21516 -11.21484 -11.21476
 Alpha  occ. eigenvalues --  -11.21413 -11.21402 -11.21276 -11.21201 -11.21036
 Alpha  occ. eigenvalues --  -11.21031 -11.21002 -11.20939  -1.34673  -1.15914
 Alpha  occ. eigenvalues --   -1.13476  -1.09624  -1.07964  -1.06100  -1.05506
 Alpha  occ. eigenvalues --   -1.02651  -1.01378  -0.99703  -0.97772  -0.95752
 Alpha  occ. eigenvalues --   -0.92410  -0.92374  -0.91897  -0.91348  -0.90695
 Alpha  occ. eigenvalues --   -0.85982  -0.83466  -0.82405  -0.81931  -0.79673
 Alpha  occ. eigenvalues --   -0.76674  -0.76442  -0.74878  -0.72840  -0.71621
 Alpha  occ. eigenvalues --   -0.68993  -0.66865  -0.64679  -0.64414  -0.64078
 Alpha  occ. eigenvalues --   -0.63459  -0.62294  -0.62102  -0.60886  -0.60586
 Alpha  occ. eigenvalues --   -0.59447  -0.58933  -0.58604  -0.58165  -0.57570
 Alpha  occ. eigenvalues --   -0.56627  -0.56146  -0.55518  -0.55439  -0.54434
 Alpha  occ. eigenvalues --   -0.54084  -0.53807  -0.53316  -0.53049  -0.52783
 Alpha  occ. eigenvalues --   -0.52364  -0.52325  -0.51723  -0.51248  -0.50690
 Alpha  occ. eigenvalues --   -0.50408  -0.50131  -0.48597  -0.48267  -0.48031
 Alpha  occ. eigenvalues --   -0.47432  -0.47205  -0.46792  -0.46332  -0.45551
 Alpha  occ. eigenvalues --   -0.45200  -0.44634  -0.44597  -0.43736  -0.43691
 Alpha  occ. eigenvalues --   -0.43468  -0.42978  -0.42579  -0.42160  -0.41708
 Alpha  occ. eigenvalues --   -0.39826  -0.38667  -0.32802
 Alpha virt. eigenvalues --    0.18153   0.20813   0.22166   0.22321   0.22616
 Alpha virt. eigenvalues --    0.23403   0.23771   0.23991   0.24585   0.25458
 Alpha virt. eigenvalues --    0.26488   0.26864   0.27000   0.27279   0.27879

 Mulliken charges:
               1
     1  O   -0.765578
     2  H    0.433064
     3  C   -0.031254
     4  C   -0.157972
     5  H    0.150957
     6  C   -0.153687
     7  H    0.164084
     8  C   -0.155262
     9  H    0.155285
    10  C   -0.147661
    11  H    0.156472
    12  C   -0.296197
    13  H    0.151566
    14  H    0.158003
    15  C   -0.038291
    16  C   -0.318068
    17  H    0.165264
    18  H    0.158298
    19  C   -0.328416
    20  H    0.164775
    21  H    0.166725
    22  C   -0.329500
    23  H    0.167579
    24  H    0.164063
    25  C   -0.324058
    26  H    0.170187
    27  H    0.161225
    28  C   -0.143684
    29  H    0.157668
    30  C   -0.488529
    31  H    0.162299
    32  H    0.165746
    33  H    0.163808
    34  C    0.063316
    35  C   -0.326502
    36  H    0.160379
    37  H    0.169646
    38  C   -0.235068
    39  H    0.172087
    40  C   -0.480344
    41  H    0.162288
    42  H    0.168708
    43  H    0.165564
    44  C   -0.370760
    45  H    0.159968
    46  H    0.179313
    47  C   -0.327130
    48  H    0.171507
    49  H    0.178800
    50  C   -0.318793
    51  H    0.163011
    52  H    0.156119
    53  C    0.194477
    54  H    0.144582
    55  C   -0.482653
    56  H    0.154241
    57  H    0.161146
    58  H    0.158501
    59  C   -0.312876
    60  H    0.158144
    61  H    0.153655
    62  C   -0.297984
    63  H    0.151084
    64  H    0.151037
    65  C   -0.151595
    66  H    0.155941
    67  C   -0.471835
    68  H    0.157512
    69  H    0.158082
    70  H    0.152397
    71  C   -0.476729
    72  H    0.161381
    73  H    0.158406
    74  H    0.152068
 Sum of Mulliken charges =   0.00000

 Dipole moment (field-independent basis, Debye):
    X=              0.9433    Y=             -0.3619    Z=              1.2647  Tot=              1.6187
 Quadrupole moment (field-independent basis, Debye-Ang):
   XX=           -187.8765   YY=           -176.1531   ZZ=           -191.1018
   XY=             -1.3372   XZ=             -8.4359   YZ=             -5.3423

 ESP charges:
               1
     1  O   -0.766919
     2  H    0.426743
     3  C    0.514684
     4  C   -0.002821
     5  H   -0.021033
     6  C    0.102220
     7  H   -0.056413
     8  C    0.010745
     9  H   -0.056147
    10  C   -0.055944
    11  H   -0.021160
    12  C   -0.234419
    13  H    0.013888
    14  H    0.031367
    15  C    0.514124
    16  C   -0.165982
    17  H    0.024293
    18  H    0.022690
    19  C    0.050579
    20  H   -0.019701
    21  H   -0.001097
    22  C    0.073824
    23  H   -0.035558
    24  H   -0.010093
    25  C    0.174835
    26  H   -0.021851
    27  H   -0.029938
    28  C    0.131318
    29  H   -0.042269
    30  C   -0.467902
    31  H    0.079620
    32  H    0.096790
    33  H    0.100801
    34  C   -0.213698
    35  C   -0.287225
    36  H    0.032368
    37  H    0.040772
    38  C   -0.324081
    39  H    0.143034
    40  C   -0.287872
    41  H    0.033621
    42  H    0.075808
    43  H    0.040404
    44  C   -0.027148
    45  H    0.011033
    46  H    0.016097
    47  C    0.111096
    48  H   -0.009580
    49  H    0.002538
    50  C    0.116763
    51  H   -0.028505
    52  H   -0.027989
    53  C    0.437857
    54  H   -0.069335
    55  C   -0.284435
    56  H    0.055903
    57  H    0.064001
    58  H    0.059803
    59  C   -0.032884
    60  H    0.008387
    61  H    0.004090
    62  C   -0.147234
    63  H    0.015709
    64  H    0.023773
    65  C    0.447592
    66  H   -0.083563
    67  C   -0.371522
    68  H    0.068175
    69  H    0.080048
    70  H    0.073100
    71  C   -0.282636
    72  H    0.050947
    73  H    0.050258
    74  H    0.055261
 Sum of ESP charges =   0.00000

 Normal termination of Gaussian 09 at Mon Mar 20 12:27:56 2017.
