 Gaussian 09, Revision D.01,
 Gaussian 09:  EM64L-G09RevD.01 24-Apr-2013

 ----------------------------------------------------------------------
 #P HF/6-31G* SCF(Conver=6) NoSymm Test Pop=chelpg IOp(6/33=2) GFInput
 GFPrint
 ----------------------------------------------------------------------

 ----------------------------------------------
 MEP - Input generated by R.E.D.-III.x MOLECULE
 ----------------------------------------------
 Symbolic Z-matrix:
 Charge =  0 Multiplicity = 1

                          Input orientation:
 ---------------------------------------------------------------------
 Center     Atomic      Atomic             Coordinates (Angstroms)
 Number     Number       Type             X           Y           Z
 ---------------------------------------------------------------------
      1          8           0        4.195957    6.548276    4.136358
      2          1           0        4.980525    6.894476    3.690771
      3          6           0        0.000000    0.000000    0.000000
      4          6           0        1.348135    0.617296   -0.473699
      5          1           0        2.130432    0.000000    0.000000
      6          6           0        1.618207    2.051360    0.000000
      7          1           0        0.864727    2.725570   -0.430706
      8          6           0        1.536116    2.119205    1.548606
      9          1           0        2.393829    1.530301    1.914023
     10          6           0        0.120724   -1.406526   -0.682709
     11          1           0        0.937018   -1.901749   -0.139269
     12          6           0        0.023506    0.014505    1.540875
     13          1           0        0.824482   -0.651597    1.891455
     14          1           0       -0.913378   -0.373732    1.957780
     15          6           0        1.752323    3.571641    2.102464
     16          6           0        1.400432    0.304685   -1.980071
     17          1           0        2.424913    0.279779   -2.364743
     18          1           0        0.866519    1.073043   -2.552988
     19          6           0        0.261081    1.434279    2.095755
     20          1           0       -0.617595    2.048091    1.871665
     21          1           0        0.315735    1.375022    3.188623
     22          6           0        0.691168   -1.074945   -2.099097
     23          1           0       -0.104441   -1.037626   -2.849946
     24          1           0        1.380803   -1.862088   -2.423382
     25          6           0        2.999842    2.533915   -0.470529
     26          1           0        2.978878    2.743217   -1.548353
     27          1           0        3.735296    1.721630   -0.346161
     28          6           0       -1.023776   -2.460437   -0.721149
     29          1           0       -0.591494   -3.287860   -1.307925
     30          6           0       -1.215728    0.802125   -0.520087
     31          1           0       -2.139152    0.451894   -0.049772
     32          1           0       -1.128199    1.868401   -0.297291
     33          1           0       -1.342268    0.708965   -1.601821
     34          6           0        2.937435    4.239228    1.390418
     35          6           0        2.090140    3.479258    3.623416
     36          1           0        2.859969    2.706419    3.756788
     37          1           0        1.206915    3.135892    4.172928
     38          6           0        3.481210    3.751947    0.265395
     39          1           0        4.338887    4.270055   -0.165183
     40          6           0        0.490188    4.453291    1.905135
     41          1           0       -0.336147    4.116218    2.538839
     42          1           0        0.686135    5.497308    2.161735
     43          1           0        0.153877    4.434762    0.863862
     44          6           0        3.486777    5.503146    2.025507
     45          1           0        4.380510    5.829017    1.477879
     46          1           0        2.757758    6.322998    1.957346
     47          6           0        2.594541    4.784722    4.255588
     48          1           0        1.816819    5.558513    4.242441
     49          1           0        2.851450    4.616305    5.307593
     50          6           0       -1.393356   -3.065229    0.654355
     51          1           0       -1.794294   -2.280389    1.309345
     52          1           0       -2.225058   -3.765757    0.491247
     53          6           0        3.814414    5.315254    3.513865
     54          1           0        4.636170    4.586350    3.609791
     55          6           0       -2.318003   -2.055528   -1.455845
     56          1           0       -2.944833   -1.394343   -0.850544
     57          1           0       -2.910772   -2.950963   -1.674778
     58          1           0       -2.125642   -1.553259   -2.408289
     59          6           0       -0.274448   -3.823363    1.385768
     60          1           0        0.154245   -4.567137    0.700168
     61          1           0        0.538599   -3.136096    1.644614
     62          6           0       -0.782443   -4.518609    2.659641
     63          1           0       -1.600679   -5.200109    2.385302
     64          1           0       -1.229622   -3.760025    3.318393
     65          6           0        0.259941   -5.316857    3.476979
     66          1           0       -0.286731   -5.734658    4.335373
     67          6           0        1.377752   -4.426586    4.044927
     68          1           0        0.966951   -3.582478    4.611302
     69          1           0        2.025686   -4.997518    4.719813
     70          1           0        2.013264   -4.018899    3.250308
     71          6           0        0.844220   -6.503912    2.693266
     72          1           0        0.051536   -7.147160    2.293281
     73          1           0        1.481211   -7.120714    3.337492
     74          1           0        1.459785   -6.168443    1.850634
 ---------------------------------------------------------------------

 SCF Done:  E(RHF) =  -1124.07277380     A.U. after    9 cycles

 Alpha  occ. eigenvalues --  -20.55360 -11.27437 -11.23915 -11.22711 -11.22678
 Alpha  occ. eigenvalues --  -11.22547 -11.22523 -11.22364 -11.22143 -11.22057
 Alpha  occ. eigenvalues --  -11.22007 -11.21999 -11.21939 -11.21922 -11.21576
 Alpha  occ. eigenvalues --  -11.21536 -11.21510 -11.21451 -11.21441 -11.21404
 Alpha  occ. eigenvalues --  -11.21401 -11.21384 -11.21347 -11.21182 -11.21072
 Alpha  occ. eigenvalues --  -11.21044 -11.20845 -11.20783  -1.34662  -1.15852
 Alpha  occ. eigenvalues --   -1.13405  -1.09515  -1.07947  -1.06079  -1.05584
 Alpha  occ. eigenvalues --   -1.02651  -1.01373  -0.99671  -0.97703  -0.95885
 Alpha  occ. eigenvalues --   -0.92419  -0.92322  -0.92231  -0.91453  -0.90410
 Alpha  occ. eigenvalues --   -0.85968  -0.83675  -0.82560  -0.81811  -0.79171
 Alpha  occ. eigenvalues --   -0.76734  -0.76276  -0.74481  -0.73518  -0.71369
 Alpha  occ. eigenvalues --   -0.68962  -0.66829  -0.64617  -0.64404  -0.64091
 Alpha  occ. eigenvalues --   -0.63272  -0.62551  -0.62240  -0.60802  -0.59927
 Alpha  occ. eigenvalues --   -0.59707  -0.58880  -0.58714  -0.58201  -0.57366
 Alpha  occ. eigenvalues --   -0.56867  -0.56343  -0.55702  -0.55386  -0.54651
 Alpha  occ. eigenvalues --   -0.54548  -0.53754  -0.53581  -0.52909  -0.52531
 Alpha  occ. eigenvalues --   -0.52430  -0.51699  -0.51381  -0.50944  -0.50594
 Alpha  occ. eigenvalues --   -0.50239  -0.50094  -0.48944  -0.48472  -0.47873
 Alpha  occ. eigenvalues --   -0.47564  -0.47232  -0.46816  -0.46163  -0.45405
 Alpha  occ. eigenvalues --   -0.45213  -0.44793  -0.44588  -0.44278  -0.43721
 Alpha  occ. eigenvalues --   -0.43334  -0.42921  -0.42620  -0.41979  -0.41489
 Alpha  occ. eigenvalues --   -0.39774  -0.38474  -0.32791
 Alpha virt. eigenvalues --    0.18162   0.20397   0.21652   0.22352   0.22516
 Alpha virt. eigenvalues --    0.23218   0.24025   0.24283   0.24660   0.25116
 Alpha virt. eigenvalues --    0.25976   0.26587   0.27394   0.27806   0.27884

 Mulliken charges:
               1
     1  O   -0.765592
     2  H    0.433050
     3  C   -0.022028
     4  C   -0.160877
     5  H    0.150721
     6  C   -0.154202
     7  H    0.163827
     8  C   -0.154719
     9  H    0.154880
    10  C   -0.154834
    11  H    0.160006
    12  C   -0.302212
    13  H    0.152506
    14  H    0.161296
    15  C   -0.038525
    16  C   -0.316201
    17  H    0.165231
    18  H    0.158702
    19  C   -0.327627
    20  H    0.165393
    21  H    0.165869
    22  C   -0.327806
    23  H    0.161084
    24  H    0.163498
    25  C   -0.324006
    26  H    0.170357
    27  H    0.161124
    28  C   -0.141598
    29  H    0.151345
    30  C   -0.486769
    31  H    0.161377
    32  H    0.163847
    33  H    0.165144
    34  C    0.063526
    35  C   -0.326316
    36  H    0.160402
    37  H    0.169426
    38  C   -0.235098
    39  H    0.172045
    40  C   -0.479995
    41  H    0.162523
    42  H    0.168557
    43  H    0.165301
    44  C   -0.370727
    45  H    0.159932
    46  H    0.179319
    47  C   -0.327081
    48  H    0.171507
    49  H    0.178769
    50  C   -0.300488
    51  H    0.153976
    52  H    0.152696
    53  C    0.194455
    54  H    0.144569
    55  C   -0.482569
    56  H    0.157406
    57  H    0.158261
    58  H    0.160006
    59  C   -0.319232
    60  H    0.153970
    61  H    0.162368
    62  C   -0.300807
    63  H    0.151510
    64  H    0.151370
    65  C   -0.146375
    66  H    0.155663
    67  C   -0.476409
    68  H    0.157062
    69  H    0.158774
    70  H    0.154520
    71  C   -0.476086
    72  H    0.156924
    73  H    0.158286
    74  H    0.155799
 Sum of Mulliken charges =   0.00000

 Dipole moment (field-independent basis, Debye):
    X=              0.5248    Y=             -1.0129    Z=             -1.2470  Tot=              1.6901
 Quadrupole moment (field-independent basis, Debye-Ang):
   XX=           -173.9313   YY=           -190.2153   ZZ=           -190.7209
   XY=              2.0470   XZ=             -4.7403   YZ=            -11.9695

 ESP charges:
               1
     1  O   -0.764441
     2  H    0.425880
     3  C    0.503994
     4  C    0.066578
     5  H   -0.025719
     6  C    0.005411
     7  H   -0.018554
     8  C   -0.066543
     9  H   -0.028016
    10  C   -0.020493
    11  H   -0.051169
    12  C   -0.370361
    13  H    0.087384
    14  H    0.082616
    15  C    0.603632
    16  C   -0.019138
    17  H   -0.009312
    18  H   -0.013264
    19  C   -0.001719
    20  H    0.015553
    21  H    0.021885
    22  C   -0.088926
    23  H    0.012690
    24  H    0.015293
    25  C    0.176101
    26  H   -0.022176
    27  H   -0.027419
    28  C    0.269379
    29  H   -0.036458
    30  C   -0.481808
    31  H    0.098220
    32  H    0.097492
    33  H    0.102664
    34  C   -0.240981
    35  C   -0.318021
    36  H    0.041242
    37  H    0.047215
    38  C   -0.306048
    39  H    0.140504
    40  C   -0.282794
    41  H    0.026492
    42  H    0.071452
    43  H    0.039396
    44  C   -0.029043
    45  H    0.014592
    46  H    0.016488
    47  C    0.092362
    48  H   -0.003306
    49  H    0.010393
    50  C   -0.274725
    51  H    0.041346
    52  H    0.067866
    53  C    0.433572
    54  H   -0.065178
    55  C   -0.343543
    56  H    0.067190
    57  H    0.069912
    58  H    0.077745
    59  C    0.234991
    60  H   -0.031395
    61  H   -0.054296
    62  C   -0.245933
    63  H    0.029776
    64  H    0.033140
    65  C    0.430439
    66  H   -0.072918
    67  C   -0.312228
    68  H    0.058515
    69  H    0.061248
    70  H    0.062997
    71  C   -0.293280
    72  H    0.055145
    73  H    0.055785
    74  H    0.054628
 Sum of ESP charges =   0.00000

 Normal termination of Gaussian 09 at Mon Mar 20 12:36:31 2017.
