 Gaussian 09, Revision D.01,
 Gaussian 09:  EM64L-G09RevD.01 24-Apr-2013

 ----------------------------------------------------------------------
 #P HF/6-31G* SCF(Conver=6) NoSymm Test Pop=chelpg IOp(6/33=2) GFInput
 GFPrint
 ----------------------------------------------------------------------

 ----------------------------------------------
 MEP - Input generated by R.E.D.-III.x MOLECULE
 ----------------------------------------------
 Symbolic Z-matrix:
 Charge =  0 Multiplicity = 1

                          Input orientation:
 ---------------------------------------------------------------------
 Center     Atomic      Atomic             Coordinates (Angstroms)
 Number     Number       Type             X           Y           Z
 ---------------------------------------------------------------------
      1          8           0       -3.730323   -3.613439   -4.124718
      2          1           0       -3.881331   -4.454343   -3.673035
      3          6           0        1.600323    2.063031    0.000000
      4          6           0        1.326740    0.607842    0.473378
      5          1           0        2.117150    0.000000    0.000000
      6          6           0        0.000000    0.000000    0.000000
      7          1           0       -0.833924    0.579084    0.421464
      8          6           0       -0.077967    0.048298   -1.548527
      9          1           0        0.700698   -0.647038   -1.903708
     10          6           0        2.983838    2.313952    0.694899
     11          1           0        3.712000    1.714449    0.128079
     12          6           0        1.599409    2.027668   -1.542032
     13          1           0        2.446152    1.412640   -1.880027
     14          1           0        1.748087    3.024168   -1.970204
     15          6           0       -1.433777   -0.513103   -2.104790
     16          6           0        1.639923    0.628292    1.977886
     17          1           0        1.914611   -0.360027    2.359862
     18          1           0        0.764400    0.955985    2.552134
     19          6           0        0.285249    1.445422   -2.103067
     20          1           0       -0.525380    2.151153   -1.892849
     21          1           0        0.366352    1.398799   -3.194967
     22          6           0        2.803222    1.651818    2.100780
     23          1           0        2.568675    2.414933    2.852215
     24          1           0        3.729754    1.171875    2.431013
     25          6           0       -0.143542   -1.451790    0.484607
     26          1           0       -0.358860   -1.470631    1.561282
     27          1           0        0.821413   -1.973675    0.371851
     28          6           0        3.544728    3.754698    0.783943
     29          1           0        2.823220    4.346597    1.366707
     30          6           0        0.546147    3.065688    0.522628
     31          1           0        0.743285    4.070262    0.133414
     32          1           0       -0.468853    2.796876    0.219999
     33          1           0        0.549541    3.133348    1.614759
     34          6           0       -1.802702   -1.817026   -1.383425
     35          6           0       -1.255102   -0.831988   -3.622008
     36          1           0       -0.320425   -1.396688   -3.745292
     37          1           0       -1.128779    0.102973   -4.178639
     38          6           0       -1.206616   -2.217550   -0.250706
     39          1           0       -1.507010   -3.170186    0.187133
     40          6           0       -2.592484    0.503572   -1.922131
     41          1           0       -2.460631    1.380103   -2.564274
     42          1           0       -3.558503    0.061113   -2.177630
     43          1           0       -2.658587    0.845032   -0.884458
     44          6           0       -2.894849   -2.658409   -2.017480
     45          1           0       -3.000095   -3.599702   -1.462716
     46          1           0       -3.865697   -2.146346   -1.958347
     47          6           0       -2.399381   -1.638280   -4.253427
     48          1           0       -3.336393   -1.067534   -4.249184
     49          1           0       -2.169561   -1.855911   -5.302665
     50          6           0        4.859357    3.821135    1.613865
     51          1           0        5.179379    4.872429    1.648936
     52          1           0        4.610324    3.557537    2.648696
     53          6           0       -2.626960   -2.943596   -3.502367
     54          1           0       -1.722546   -3.568331   -3.589125
     55          6           0        3.681452    4.451343   -0.583740
     56          1           0        4.195733    3.824508   -1.318864
     57          1           0        4.249404    5.383496   -0.487050
     58          1           0        2.704690    4.709232   -1.002187
     59          6           0        6.069872    2.954334    1.199379
     60          1           0        6.743819    2.923168    2.065064
     61          1           0        5.747723    1.918181    1.040038
     62          6           0        6.868552    3.446899   -0.020709
     63          1           0        7.069860    4.521153    0.100945
     64          1           0        6.258360    3.354398   -0.926403
     65          6           0        8.215512    2.729972   -0.282500
     66          1           0        8.622908    3.183814   -1.198094
     67          6           0        8.041236    1.227867   -0.562426
     68          1           0        7.314167    1.052900   -1.364303
     69          1           0        8.991122    0.775042   -0.868923
     70          1           0        7.694483    0.689015    0.326952
     71          6           0        9.248494    2.967977    0.831711
     72          1           0        9.383976    4.038172    1.027596
     73          1           0       10.223924    2.554030    0.551579
     74          1           0        8.951447    2.490598    1.772566
 ---------------------------------------------------------------------

 SCF Done:  E(RHF) =  -1124.07298542     A.U. after    9 cycles

 Alpha  occ. eigenvalues --  -20.55356 -11.27433 -11.23898 -11.22703 -11.22662
 Alpha  occ. eigenvalues --  -11.22503 -11.22356 -11.22320 -11.22139 -11.22049
 Alpha  occ. eigenvalues --  -11.21993 -11.21981 -11.21927 -11.21916 -11.21560
 Alpha  occ. eigenvalues --  -11.21531 -11.21459 -11.21458 -11.21441 -11.21395
 Alpha  occ. eigenvalues --  -11.21362 -11.21358 -11.21343 -11.21175 -11.21060
 Alpha  occ. eigenvalues --  -11.21004 -11.20927 -11.20819  -1.34659  -1.15869
 Alpha  occ. eigenvalues --   -1.13449  -1.09458  -1.07910  -1.06039  -1.05419
 Alpha  occ. eigenvalues --   -1.02659  -1.01238  -0.99399  -0.97688  -0.95811
 Alpha  occ. eigenvalues --   -0.92802  -0.92396  -0.91972  -0.91464  -0.90691
 Alpha  occ. eigenvalues --   -0.85962  -0.84310  -0.82514  -0.81778  -0.78764
 Alpha  occ. eigenvalues --   -0.76619  -0.76215  -0.74602  -0.72904  -0.71438
 Alpha  occ. eigenvalues --   -0.68993  -0.66924  -0.65328  -0.64296  -0.63421
 Alpha  occ. eigenvalues --   -0.63253  -0.62459  -0.61627  -0.61046  -0.60221
 Alpha  occ. eigenvalues --   -0.59930  -0.59010  -0.58550  -0.58204  -0.57434
 Alpha  occ. eigenvalues --   -0.56395  -0.56273  -0.55803  -0.55315  -0.54676
 Alpha  occ. eigenvalues --   -0.54482  -0.53696  -0.53481  -0.52838  -0.52628
 Alpha  occ. eigenvalues --   -0.52319  -0.52084  -0.51641  -0.51369  -0.51150
 Alpha  occ. eigenvalues --   -0.50403  -0.50224  -0.48544  -0.48205  -0.48103
 Alpha  occ. eigenvalues --   -0.47381  -0.47091  -0.46738  -0.46391  -0.45333
 Alpha  occ. eigenvalues --   -0.44993  -0.44610  -0.44201  -0.43802  -0.43617
 Alpha  occ. eigenvalues --   -0.43322  -0.42946  -0.42822  -0.42102  -0.41595
 Alpha  occ. eigenvalues --   -0.39801  -0.38522  -0.32783
 Alpha virt. eigenvalues --    0.18177   0.20535   0.21789   0.22472   0.22630
 Alpha virt. eigenvalues --    0.23165   0.24121   0.24446   0.24756   0.25378
 Alpha virt. eigenvalues --    0.26041   0.26552   0.27149   0.27676   0.28179

 Mulliken charges:
               1
     1  O   -0.765588
     2  H    0.433038
     3  C   -0.027612
     4  C   -0.157930
     5  H    0.150869
     6  C   -0.153635
     7  H    0.163635
     8  C   -0.154767
     9  H    0.154955
    10  C   -0.141573
    11  H    0.155518
    12  C   -0.298410
    13  H    0.150398
    14  H    0.164306
    15  C   -0.038364
    16  C   -0.316491
    17  H    0.165441
    18  H    0.158430
    19  C   -0.327824
    20  H    0.163979
    21  H    0.165915
    22  C   -0.336195
    23  H    0.160835
    24  H    0.167793
    25  C   -0.324460
    26  H    0.170214
    27  H    0.161222
    28  C   -0.143087
    29  H    0.155774
    30  C   -0.489624
    31  H    0.162558
    32  H    0.164995
    33  H    0.164026
    34  C    0.063501
    35  C   -0.326290
    36  H    0.160330
    37  H    0.169526
    38  C   -0.235052
    39  H    0.171971
    40  C   -0.480263
    41  H    0.162484
    42  H    0.168550
    43  H    0.165325
    44  C   -0.370706
    45  H    0.159898
    46  H    0.179319
    47  C   -0.327111
    48  H    0.171499
    49  H    0.178735
    50  C   -0.314193
    51  H    0.153030
    52  H    0.161713
    53  C    0.194461
    54  H    0.144553
    55  C   -0.487091
    56  H    0.158288
    57  H    0.158649
    58  H    0.160733
    59  C   -0.319517
    60  H    0.158276
    61  H    0.160249
    62  C   -0.303176
    63  H    0.149982
    64  H    0.157932
    65  C   -0.146989
    66  H    0.155272
    67  C   -0.476529
    68  H    0.155472
    69  H    0.158452
    70  H    0.156080
    71  C   -0.476502
    72  H    0.156995
    73  H    0.158336
    74  H    0.155462
 Sum of Mulliken charges =   0.00000

 Dipole moment (field-independent basis, Debye):
    X=              1.0116    Y=             -0.2119    Z=              1.3454  Tot=              1.6966
 Quadrupole moment (field-independent basis, Debye-Ang):
   XX=           -187.5830   YY=           -174.6068   ZZ=           -190.7858
   XY=             -0.5455   XZ=             -8.6535   YZ=             -4.2925

 ESP charges:
               1
     1  O   -0.769686
     2  H    0.427622
     3  C    0.479892
     4  C    0.130362
     5  H   -0.048760
     6  C    0.074246
     7  H   -0.054814
     8  C   -0.006343
     9  H   -0.057869
    10  C   -0.134812
    11  H   -0.025923
    12  C   -0.201969
    13  H    0.008256
    14  H    0.027939
    15  C    0.576059
    16  C   -0.213171
    17  H    0.031239
    18  H    0.022799
    19  C    0.036135
    20  H   -0.016583
    21  H   -0.003380
    22  C    0.083070
    23  H   -0.008720
    24  H   -0.018571
    25  C    0.170567
    26  H   -0.019828
    27  H   -0.031042
    28  C    0.364904
    29  H   -0.080273
    30  C   -0.485579
    31  H    0.091564
    32  H    0.100023
    33  H    0.096644
    34  C   -0.230073
    35  C   -0.319269
    36  H    0.038476
    37  H    0.046677
    38  C   -0.330144
    39  H    0.147260
    40  C   -0.306859
    41  H    0.034914
    42  H    0.078450
    43  H    0.042856
    44  C   -0.015615
    45  H    0.007363
    46  H    0.012389
    47  C    0.119303
    48  H   -0.013311
    49  H    0.002178
    50  C   -0.080075
    51  H   -0.002075
    52  H   -0.032770
    53  C    0.441162
    54  H   -0.071795
    55  C   -0.359446
    56  H    0.068045
    57  H    0.067084
    58  H    0.069535
    59  C    0.180880
    60  H   -0.042803
    61  H   -0.035900
    62  C   -0.128543
    63  H    0.006160
    64  H   -0.004787
    65  C    0.394552
    66  H   -0.074021
    67  C   -0.278126
    68  H    0.049968
    69  H    0.055451
    70  H    0.047638
    71  C   -0.311807
    72  H    0.055297
    73  H    0.063202
    74  H    0.064585
 Sum of ESP charges =   0.00000

 Normal termination of Gaussian 09 at Mon Mar 20 12:09:19 2017.
