 Gaussian 09, Revision D.01,
 Gaussian 09:  EM64L-G09RevD.01 24-Apr-2013

 ----------------------------------------------------------------------
 #P HF/6-31G* SCF(Conver=6) NoSymm Test Pop=chelpg IOp(6/33=2) GFInput
 GFPrint
 ----------------------------------------------------------------------

 ----------------------------------------------
 MEP - Input generated by R.E.D.-III.x MOLECULE
 ----------------------------------------------
 Symbolic Z-matrix:
 Charge =  0 Multiplicity = 1

                          Input orientation:
 ---------------------------------------------------------------------
 Center     Atomic      Atomic             Coordinates (Angstroms)
 Number     Number       Type             X           Y           Z
 ---------------------------------------------------------------------
      1          8           0        4.213198    6.547824    4.125328
      2          1           0        4.992333    6.898071    3.673417
      3          6           0        0.000000    0.000000    0.000000
      4          6           0        1.345099    0.618957   -0.473410
      5          1           0        2.126851    0.000000    0.000000
      6          6           0        1.612260    2.053571    0.000000
      7          1           0        0.847683    2.721751   -0.421166
      8          6           0        1.547060    2.117197    1.548596
      9          1           0        2.411431    1.531523    1.903255
     10          6           0        0.091456   -1.403154   -0.694955
     11          1           0        0.843975   -1.966947   -0.124189
     12          6           0        0.035665    0.008374    1.542020
     13          1           0        0.838503   -0.663538    1.878711
     14          1           0       -0.894126   -0.378919    1.971238
     15          6           0        1.761464    3.568896    2.104698
     16          6           0        1.401354    0.309842   -1.977649
     17          1           0        2.426270    0.289018   -2.361368
     18          1           0        0.865368    1.076121   -2.551481
     19          6           0        0.280796    1.424464    2.103863
     20          1           0       -0.601056    2.039205    1.894625
     21          1           0        0.346711    1.356485    3.195648
     22          6           0        0.698644   -1.071143   -2.098214
     23          1           0       -0.092176   -1.038302   -2.856877
     24          1           0        1.396962   -1.851467   -2.417249
     25          6           0        2.985372    2.546007   -0.485020
     26          1           0        2.950752    2.759770   -1.561612
     27          1           0        3.726300    1.736887   -0.372937
     28          6           0       -1.174990   -2.289570   -0.793018
     29          1           0       -1.924540   -1.724650   -1.366275
     30          6           0       -1.229166    0.779103   -0.520876
     31          1           0       -2.155065    0.345988   -0.127437
     32          1           0       -1.212993    1.829883   -0.221497
     33          1           0       -1.297479    0.756087   -1.612801
     34          6           0        2.936811    4.243822    1.383374
     35          6           0        2.113278    3.473267    3.622151
     36          1           0        2.887175    2.702954    3.746388
     37          1           0        1.236244    3.124912    4.178373
     38          6           0        3.470030    3.763119    0.250498
     39          1           0        4.321107    4.286062   -0.187307
     40          6           0        0.493860    4.445862    1.921080
     41          1           0       -0.324402    4.106452    2.563990
     42          1           0        0.688722    5.490795    2.174822
     43          1           0        0.146231    4.425560    0.883541
     44          6           0        3.487973    5.507243    2.017837
     45          1           0        4.375460    5.838012    1.463014
     46          1           0        2.755677    6.324960    1.959412
     47          6           0        2.618538    4.778691    4.253544
     48          1           0        1.837993    5.549719    4.249265
     49          1           0        2.885328    4.608390    5.302778
     50          6           0       -0.926524   -3.588745   -1.607488
     51          1           0       -1.896636   -4.090543   -1.719527
     52          1           0       -0.608793   -3.325813   -2.624644
     53          6           0        3.829910    5.315522    3.502471
     54          1           0        4.654856    4.589008    3.588549
     55          6           0       -1.803654   -2.626661    0.572046
     56          1           0       -1.069088   -3.047246    1.267922
     57          1           0       -2.607004   -3.363270    0.452025
     58          1           0       -2.240906   -1.746237    1.049440
     59          6           0        0.090387   -4.580751   -1.018222
     60          1           0        1.050953   -4.072247   -0.866339
     61          1           0       -0.234881   -4.906599   -0.022744
     62          6           0        0.352670   -5.811457   -1.907371
     63          1           0        1.169560   -6.398204   -1.461348
     64          1           0        0.727018   -5.464113   -2.881357
     65          6           0       -0.838266   -6.761907   -2.155314
     66          1           0       -1.651372   -6.184377   -2.617768
     67          6           0       -1.377641   -7.378064   -0.854726
     68          1           0       -1.745939   -6.617704   -0.158511
     69          1           0       -2.206719   -8.064412   -1.061404
     70          1           0       -0.593803   -7.949548   -0.340538
     71          6           0       -0.436979   -7.865094   -3.147801
     72          1           0       -0.085986   -7.441415   -4.095825
     73          1           0       -1.281108   -8.528317   -3.368796
     74          1           0        0.373013   -8.483063   -2.739185
 ---------------------------------------------------------------------

 SCF Done:  E(RHF) =  -1124.07838792     A.U. after    9 cycles

 Alpha  occ. eigenvalues --  -20.55358 -11.27435 -11.23904 -11.22709 -11.22662
 Alpha  occ. eigenvalues --  -11.22390 -11.22373 -11.22326 -11.22143 -11.22054
 Alpha  occ. eigenvalues --  -11.21998 -11.21962 -11.21931 -11.21921 -11.21566
 Alpha  occ. eigenvalues --  -11.21546 -11.21466 -11.21461 -11.21455 -11.21399
 Alpha  occ. eigenvalues --  -11.21377 -11.21371 -11.21348 -11.21181 -11.21023
 Alpha  occ. eigenvalues --  -11.21019 -11.20940 -11.20936  -1.34661  -1.15874
 Alpha  occ. eigenvalues --   -1.13457  -1.09645  -1.07972  -1.06066  -1.05513
 Alpha  occ. eigenvalues --   -1.02666  -1.01282  -0.99580  -0.97724  -0.95836
 Alpha  occ. eigenvalues --   -0.92719  -0.92385  -0.91950  -0.91002  -0.90698
 Alpha  occ. eigenvalues --   -0.85967  -0.83918  -0.82521  -0.81778  -0.79090
 Alpha  occ. eigenvalues --   -0.76669  -0.76358  -0.75213  -0.72772  -0.71354
 Alpha  occ. eigenvalues --   -0.68995  -0.66897  -0.65092  -0.64311  -0.64155
 Alpha  occ. eigenvalues --   -0.63304  -0.62315  -0.62074  -0.61072  -0.60351
 Alpha  occ. eigenvalues --   -0.59384  -0.58837  -0.58329  -0.57804  -0.57476
 Alpha  occ. eigenvalues --   -0.56366  -0.56209  -0.55915  -0.55415  -0.54715
 Alpha  occ. eigenvalues --   -0.54244  -0.53808  -0.53499  -0.53124  -0.52892
 Alpha  occ. eigenvalues --   -0.52537  -0.52370  -0.51479  -0.51214  -0.50625
 Alpha  occ. eigenvalues --   -0.50269  -0.49833  -0.49466  -0.48481  -0.47773
 Alpha  occ. eigenvalues --   -0.47309  -0.46951  -0.46775  -0.46090  -0.45384
 Alpha  occ. eigenvalues --   -0.44809  -0.44618  -0.44384  -0.44115  -0.43768
 Alpha  occ. eigenvalues --   -0.43491  -0.43027  -0.42892  -0.42139  -0.41679
 Alpha  occ. eigenvalues --   -0.39802  -0.38537  -0.32789
 Alpha virt. eigenvalues --    0.18172   0.20748   0.21957   0.22361   0.22532
 Alpha virt. eigenvalues --    0.23373   0.23813   0.24434   0.24642   0.25604
 Alpha virt. eigenvalues --    0.26018   0.26748   0.27097   0.27527   0.28269

 Mulliken charges:
               1
     1  O   -0.765602
     2  H    0.433035
     3  C   -0.027114
     4  C   -0.158036
     5  H    0.150813
     6  C   -0.153686
     7  H    0.163618
     8  C   -0.154851
     9  H    0.155017
    10  C   -0.141373
    11  H    0.156989
    12  C   -0.298345
    13  H    0.151151
    14  H    0.163509
    15  C   -0.038234
    16  C   -0.316377
    17  H    0.165437
    18  H    0.158378
    19  C   -0.327811
    20  H    0.163956
    21  H    0.166017
    22  C   -0.335123
    23  H    0.160851
    24  H    0.166393
    25  C   -0.324481
    26  H    0.170207
    27  H    0.161190
    28  C   -0.147279
    29  H    0.157065
    30  C   -0.489851
    31  H    0.162324
    32  H    0.165137
    33  H    0.163896
    34  C    0.063411
    35  C   -0.326310
    36  H    0.160346
    37  H    0.169550
    38  C   -0.235018
    39  H    0.171975
    40  C   -0.480250
    41  H    0.162436
    42  H    0.168555
    43  H    0.165318
    44  C   -0.370705
    45  H    0.159900
    46  H    0.179298
    47  C   -0.327087
    48  H    0.171469
    49  H    0.178762
    50  C   -0.314343
    51  H    0.157280
    52  H    0.159545
    53  C    0.194472
    54  H    0.144550
    55  C   -0.486767
    56  H    0.157772
    57  H    0.156942
    58  H    0.162736
    59  C   -0.319086
    60  H    0.158963
    61  H    0.160238
    62  C   -0.297523
    63  H    0.150542
    64  H    0.150985
    65  C   -0.152280
    66  H    0.156527
    67  C   -0.476811
    68  H    0.161455
    69  H    0.158260
    70  H    0.151999
    71  C   -0.471710
    72  H    0.157587
    73  H    0.158044
    74  H    0.152155
 Sum of Mulliken charges =   0.00000

 Dipole moment (field-independent basis, Debye):
    X=              0.4608    Y=             -0.8255    Z=             -1.3676  Tot=              1.6626
 Quadrupole moment (field-independent basis, Debye-Ang):
   XX=           -173.0755   YY=           -192.3932   ZZ=           -191.1152
   XY=              1.8241   XZ=             -3.9231   YZ=            -12.2236

 ESP charges:
               1
     1  O   -0.762614
     2  H    0.426078
     3  C    0.505680
     4  C    0.096211
     5  H   -0.042330
     6  C    0.096630
     7  H   -0.049325
     8  C   -0.083279
     9  H   -0.036377
    10  C   -0.037305
    11  H   -0.047798
    12  C   -0.163465
    13  H   -0.004469
    14  H    0.013248
    15  C    0.597494
    16  C   -0.200187
    17  H    0.027067
    18  H    0.024505
    19  C    0.051567
    20  H   -0.021540
    21  H   -0.006805
    22  C    0.035939
    23  H   -0.005158
    24  H    0.007613
    25  C    0.115744
    26  H   -0.004704
    27  H   -0.015800
    28  C    0.175100
    29  H   -0.037885
    30  C   -0.503800
    31  H    0.095204
    32  H    0.104244
    33  H    0.098485
    34  C   -0.236105
    35  C   -0.307601
    36  H    0.040107
    37  H    0.050298
    38  C   -0.307195
    39  H    0.144835
    40  C   -0.312635
    41  H    0.038168
    42  H    0.078870
    43  H    0.045021
    44  C   -0.006893
    45  H    0.004658
    46  H    0.013205
    47  C    0.066420
    48  H    0.001020
    49  H    0.018315
    50  C   -0.007848
    51  H   -0.000124
    52  H   -0.037048
    53  C    0.429060
    54  H   -0.063739
    55  C   -0.309248
    56  H    0.055392
    57  H    0.067849
    58  H    0.066182
    59  C    0.092439
    60  H   -0.009403
    61  H   -0.019603
    62  C   -0.198980
    63  H    0.016841
    64  H    0.028905
    65  C    0.509975
    66  H   -0.102449
    67  C   -0.307602
    68  H    0.058559
    69  H    0.051105
    70  H    0.056569
    71  C   -0.353620
    72  H    0.059487
    73  H    0.070555
    74  H    0.068287
 Sum of ESP charges =   0.00000

 Normal termination of Gaussian 09 at Mon Mar 20 12:51:37 2017.
