 Gaussian 09, Revision D.01,
 Gaussian 09:  EM64L-G09RevD.01 24-Apr-2013

 ----------------------------------------------------------------------
 #P HF/6-31G* SCF(Conver=6) NoSymm Test Pop=chelpg IOp(6/33=2) GFInput
 GFPrint
 ----------------------------------------------------------------------

 ----------------------------------------------
 MEP - Input generated by R.E.D.-III.x MOLECULE
 ----------------------------------------------
 Symbolic Z-matrix:
 Charge =  0 Multiplicity = 1

                          Input orientation:
 ---------------------------------------------------------------------
 Center     Atomic      Atomic             Coordinates (Angstroms)
 Number     Number       Type             X           Y           Z
 ---------------------------------------------------------------------
      1          8           0        5.005760   -0.241524   -7.250602
      2          1           0        5.956758   -0.330216   -7.103349
      3          6           0        0.000000    0.000000    0.000000
      4          6           0        1.554846    0.000000    0.000000
      5          1           0        1.841492    1.066012    0.000000
      6          6           0        2.214434   -0.605947   -1.245758
      7          1           0        1.946792   -1.669895   -1.314714
      8          6           0        1.713659    0.128130   -2.516935
      9          1           0        2.119398    1.150933   -2.444994
     10          6           0       -0.272860    0.647986    1.402824
     11          1           0       -0.040725    1.719401    1.292702
     12          6           0       -0.432701    0.818885   -1.234226
     13          1           0       -0.107080    1.860130   -1.095862
     14          1           0       -1.521420    0.846485   -1.343430
     15          6           0        2.309646   -0.472781   -3.838399
     16          6           0        1.935982   -0.549705    1.382216
     17          1           0        2.937335   -0.237887    1.695534
     18          1           0        1.934326   -1.646794    1.376849
     19          6           0        0.173270    0.259489   -2.538284
     20          1           0       -0.280113   -0.716485   -2.741780
     21          1           0       -0.130089    0.909679   -3.366676
     22          6           0        0.827843    0.007511    2.317044
     23          1           0        0.395957   -0.792327    2.930515
     24          1           0        1.234289    0.745270    3.015278
     25          6           0        3.746292   -0.511381   -1.157841
     26          1           0        4.128231   -1.239895   -0.430306
     27          1           0        4.030919    0.475991   -0.757488
     28          6           0       -1.689047    0.561402    2.029371
     29          1           0       -1.912908   -0.501599    2.208027
     30          6           0       -0.591301   -1.427537   -0.054456
     31          1           0       -1.684517   -1.391645   -0.105302
     32          1           0       -0.246563   -1.987366   -0.927323
     33          1           0       -0.326854   -2.014602    0.830339
     34          6           0        3.814478   -0.727408   -3.672740
     35          6           0        2.116795    0.564965   -4.987964
     36          1           0        2.443290    1.547802   -4.620346
     37          1           0        1.050196    0.658597   -5.219419
     38          6           0        4.427895   -0.722176   -2.480064
     39          1           0        5.505723   -0.885690   -2.448097
     40          6           0        1.617110   -1.807483   -4.223884
     41          1           0        0.578272   -1.645917   -4.528483
     42          1           0        2.123987   -2.295969   -5.059766
     43          1           0        1.623739   -2.512238   -3.386614
     44          6           0        4.602729   -0.990044   -4.942470
     45          1           0        5.670945   -1.064296   -4.701065
     46          1           0        4.312427   -1.950934   -5.390437
     47          6           0        2.882369    0.248676   -6.281050
     48          1           0        2.514366   -0.675363   -6.744154
     49          1           0        2.727780    1.049437   -7.013143
     50          6           0       -1.707659    1.267702    3.408288
     51          1           0       -0.860626    0.913046    4.007307
     52          1           0       -1.538695    2.342708    3.249405
     53          6           0        4.372546    0.090660   -6.008771
     54          1           0        4.771995    1.049351   -5.638470
     55          6           0       -2.792402    1.131905    1.121086
     56          1           0       -2.578306    2.173873    0.851193
     57          1           0       -3.765705    1.111821    1.620211
     58          1           0       -2.898909    0.563658    0.194639
     59          6           0       -2.986191    1.052710    4.236371
     60          1           0       -3.843669    1.536053    3.754447
     61          1           0       -3.217233   -0.021995    4.251190
     62          6           0       -2.879100    1.534694    5.695077
     63          1           0       -2.064452    0.983070    6.186367
     64          1           0       -3.799918    1.252832    6.227127
     65          6           0       -2.642374    3.044857    5.910146
     66          1           0       -1.713648    3.324499    5.392376
     67          6           0       -2.443559    3.342881    7.404946
     68          1           0       -1.610063    2.764743    7.820300
     69          1           0       -2.232840    4.404944    7.574898
     70          1           0       -3.344207    3.086974    7.977876
     71          6           0       -3.779532    3.904787    5.336024
     72          1           0       -3.892045    3.773241    4.254960
     73          1           0       -3.596215    4.969440    5.520583
     74          1           0       -4.737892    3.646649    5.805318
 ---------------------------------------------------------------------

 SCF Done:  E(RHF) =  -1124.07905761     A.U. after    9 cycles

 Alpha  occ. eigenvalues --  -20.55358 -11.27435 -11.23900 -11.22706 -11.22690
 Alpha  occ. eigenvalues --  -11.22402 -11.22376 -11.22316 -11.22141 -11.22077
 Alpha  occ. eigenvalues --  -11.22051 -11.21996 -11.21929 -11.21919 -11.21565
 Alpha  occ. eigenvalues --  -11.21559 -11.21503 -11.21458 -11.21457 -11.21397
 Alpha  occ. eigenvalues --  -11.21364 -11.21351 -11.21322 -11.21178 -11.21031
 Alpha  occ. eigenvalues --  -11.21028 -11.20934 -11.20846  -1.34660  -1.15864
 Alpha  occ. eigenvalues --   -1.13444  -1.09681  -1.08004  -1.06074  -1.05564
 Alpha  occ. eigenvalues --   -1.02663  -1.01346  -0.99581  -0.97747  -0.95805
 Alpha  occ. eigenvalues --   -0.92741  -0.92395  -0.91963  -0.90976  -0.90659
 Alpha  occ. eigenvalues --   -0.85966  -0.83741  -0.82266  -0.81737  -0.79030
 Alpha  occ. eigenvalues --   -0.76674  -0.76360  -0.74721  -0.73756  -0.71794
 Alpha  occ. eigenvalues --   -0.68979  -0.66843  -0.65140  -0.64320  -0.64155
 Alpha  occ. eigenvalues --   -0.63337  -0.62321  -0.61665  -0.60891  -0.60554
 Alpha  occ. eigenvalues --   -0.59368  -0.58920  -0.58408  -0.58093  -0.57373
 Alpha  occ. eigenvalues --   -0.56388  -0.56199  -0.55777  -0.55389  -0.54597
 Alpha  occ. eigenvalues --   -0.54167  -0.54040  -0.53504  -0.53108  -0.52897
 Alpha  occ. eigenvalues --   -0.52407  -0.52333  -0.51463  -0.51232  -0.50402
 Alpha  occ. eigenvalues --   -0.50263  -0.49777  -0.48843  -0.48361  -0.47853
 Alpha  occ. eigenvalues --   -0.47345  -0.47018  -0.46828  -0.46096  -0.45582
 Alpha  occ. eigenvalues --   -0.45164  -0.44731  -0.44300  -0.43970  -0.43598
 Alpha  occ. eigenvalues --   -0.43443  -0.43248  -0.42932  -0.42569  -0.41628
 Alpha  occ. eigenvalues --   -0.39794  -0.38453  -0.32787
 Alpha virt. eigenvalues --    0.18177   0.21111   0.22062   0.22296   0.22569
 Alpha virt. eigenvalues --    0.23449   0.24123   0.24626   0.24933   0.25897
 Alpha virt. eigenvalues --    0.26070   0.26506   0.27144   0.27407   0.27883

 Mulliken charges:
               1
     1  O   -0.765593
     2  H    0.433033
     3  C   -0.029147
     4  C   -0.158267
     5  H    0.151036
     6  C   -0.153674
     7  H    0.163632
     8  C   -0.154758
     9  H    0.155024
    10  C   -0.134770
    11  H    0.152277
    12  C   -0.298427
    13  H    0.151254
    14  H    0.163737
    15  C   -0.038358
    16  C   -0.316309
    17  H    0.165438
    18  H    0.158304
    19  C   -0.327701
    20  H    0.163903
    21  H    0.165952
    22  C   -0.335581
    23  H    0.160128
    24  H    0.167290
    25  C   -0.324497
    26  H    0.170182
    27  H    0.161224
    28  C   -0.149253
    29  H    0.152473
    30  C   -0.489005
    31  H    0.162885
    32  H    0.164765
    33  H    0.163873
    34  C    0.063538
    35  C   -0.326263
    36  H    0.160349
    37  H    0.169523
    38  C   -0.235052
    39  H    0.171961
    40  C   -0.480306
    41  H    0.162497
    42  H    0.168563
    43  H    0.165290
    44  C   -0.370722
    45  H    0.159886
    46  H    0.179326
    47  C   -0.327109
    48  H    0.171497
    49  H    0.178745
    50  C   -0.311593
    51  H    0.164342
    52  H    0.151131
    53  C    0.194463
    54  H    0.144549
    55  C   -0.485692
    56  H    0.152467
    57  H    0.164530
    58  H    0.162925
    59  C   -0.313020
    60  H    0.159098
    61  H    0.154354
    62  C   -0.298439
    63  H    0.151176
    64  H    0.150843
    65  C   -0.151844
    66  H    0.156876
    67  C   -0.471873
    68  H    0.157481
    69  H    0.157984
    70  H    0.152339
    71  C   -0.476811
    72  H    0.161612
    73  H    0.158261
    74  H    0.152050
 Sum of Mulliken charges =   0.00000

 Dipole moment (field-independent basis, Debye):
    X=              0.5378    Y=              0.1478    Z=              1.5906  Tot=              1.6855
 Quadrupole moment (field-independent basis, Debye-Ang):
   XX=           -171.8157   YY=           -181.2471   ZZ=           -203.5835
   XY=              1.0850   XZ=              4.1073   YZ=             -1.9425

 ESP charges:
               1
     1  O   -0.765999
     2  H    0.425879
     3  C    0.661748
     4  C   -0.016877
     5  H   -0.022667
     6  C    0.047691
     7  H   -0.036986
     8  C    0.026118
     9  H   -0.052136
    10  C   -0.162404
    11  H   -0.020329
    12  C   -0.210701
    13  H   -0.001035
    14  H    0.019803
    15  C    0.441504
    16  C   -0.112173
    17  H    0.015598
    18  H    0.006889
    19  C    0.050941
    20  H   -0.025250
    21  H   -0.006492
    22  C   -0.004638
    23  H    0.002035
    24  H    0.013363
    25  C    0.169854
    26  H   -0.013602
    27  H   -0.022458
    28  C    0.196204
    29  H   -0.033002
    30  C   -0.497136
    31  H    0.082435
    32  H    0.097408
    33  H    0.096149
    34  C   -0.136873
    35  C   -0.336237
    36  H    0.057378
    37  H    0.070935
    38  C   -0.343787
    39  H    0.144016
    40  C   -0.299738
    41  H    0.046162
    42  H    0.080988
    43  H    0.046690
    44  C   -0.077844
    45  H    0.020483
    46  H    0.029685
    47  C    0.045485
    48  H    0.016883
    49  H    0.022972
    50  C    0.059893
    51  H   -0.031681
    52  H   -0.004887
    53  C    0.460736
    54  H   -0.065706
    55  C   -0.340046
    56  H    0.064776
    57  H    0.070382
    58  H    0.073104
    59  C   -0.018709
    60  H    0.007251
    61  H   -0.000935
    62  C   -0.113299
    63  H    0.011458
    64  H    0.006455
    65  C    0.477855
    66  H   -0.104528
    67  C   -0.358654
    68  H    0.061654
    69  H    0.075857
    70  H    0.065979
    71  C   -0.279929
    72  H    0.047924
    73  H    0.047688
    74  H    0.050429
 Sum of ESP charges =   0.00000

 Normal termination of Gaussian 09 at Mon Mar 20 13:11:03 2017.
