 Gaussian 09, Revision D.01,
 Gaussian 09:  EM64L-G09RevD.01 24-Apr-2013

 ----------------------------------------------------------------------
 #P HF/6-31G* SCF(Conver=6) NoSymm Test Pop=chelpg IOp(6/33=2) GFInput
 GFPrint
 ----------------------------------------------------------------------

 ----------------------------------------------
 MEP - Input generated by R.E.D.-III.x MOLECULE
 ----------------------------------------------
 Symbolic Z-matrix:
 Charge =  0 Multiplicity = 1

                          Input orientation:
 ---------------------------------------------------------------------
 Center     Atomic      Atomic             Coordinates (Angstroms)
 Number     Number       Type             X           Y           Z
 ---------------------------------------------------------------------
      1          8           0        4.193855    6.549273    4.136990
      2          1           0        4.978255    6.896149    3.691639
      3          6           0        0.000000    0.000000    0.000000
      4          6           0        1.348303    0.617232   -0.473607
      5          1           0        2.130665    0.000000    0.000000
      6          6           0        1.618406    2.051464    0.000000
      7          1           0        0.865626    2.725856   -0.431664
      8          6           0        1.534798    2.119870    1.548450
      9          1           0        2.391389    1.529986    1.914897
     10          6           0        0.120759   -1.406651   -0.683286
     11          1           0        0.938894   -1.900687   -0.140981
     12          6           0        0.022328    0.015939    1.540764
     13          1           0        0.824044   -0.648406    1.892797
     14          1           0       -0.914165   -0.373589    1.957476
     15          6           0        1.751962    3.572053    2.102549
     16          6           0        1.400522    0.305063   -1.980232
     17          1           0        2.425166    0.277862   -2.364291
     18          1           0        0.868806    1.074923   -2.553137
     19          6           0        0.258371    1.436445    2.094135
     20          1           0       -0.619507    2.050302    1.867224
     21          1           0        0.310660    1.378694    3.187172
     22          6           0        0.688089   -1.072860   -2.100343
     23          1           0       -0.110347   -1.032164   -2.848129
     24          1           0        1.374964   -1.860570   -2.429099
     25          6           0        3.000649    2.533302   -0.469487
     26          1           0        2.980801    2.742071   -1.547436
     27          1           0        3.735700    1.720831   -0.344018
     28          6           0       -1.021833   -2.462155   -0.722528
     29          1           0       -0.595947   -3.278962   -1.325717
     30          6           0       -1.214725    0.803030   -0.521538
     31          1           0       -2.138605    0.457237   -0.048958
     32          1           0       -1.124187    1.869846   -0.302677
     33          1           0       -1.342614    0.706332   -1.602771
     34          6           0        2.937412    4.239265    1.390875
     35          6           0        2.090065    3.478891    3.623343
     36          1           0        2.860222    2.706281    3.756100
     37          1           0        1.207121    3.134895    4.172913
     38          6           0        3.481750    3.751605    0.266285
     39          1           0        4.339671    4.269514   -0.164047
     40          6           0        0.490185    4.454419    1.905969
     41          1           0       -0.336260    4.117047    2.539354
     42          1           0        0.686401    5.498167    2.163488
     43          1           0        0.153868    4.436819    0.864694
     44          6           0        3.486333    5.503313    2.025994
     45          1           0        4.380154    5.829328    1.478598
     46          1           0        2.757142    6.322967    1.957510
     47          6           0        2.594149    4.784212    4.256158
     48          1           0        1.816134    5.557717    4.243728
     49          1           0        2.851340    4.615280    5.308010
     50          6           0       -1.384263   -3.071798    0.653740
     51          1           0       -1.806624   -2.287086    1.294176
     52          1           0       -2.204825   -3.783712    0.490868
     53          6           0        3.813665    5.315811    3.514538
     54          1           0        4.636115    4.587744    3.610814
     55          6           0       -2.323265   -2.053855   -1.442371
     56          1           0       -2.944662   -1.395605   -0.828291
     57          1           0       -2.918153   -2.948304   -1.659901
     58          1           0       -2.139647   -1.547707   -2.394565
     59          6           0       -0.261904   -3.785913    1.431983
     60          1           0        0.514940   -3.063913    1.710063
     61          1           0       -0.682877   -4.136720    2.382995
     62          6           0        0.418510   -4.965068    0.710143
     63          1           0        1.203556   -5.364305    1.369433
     64          1           0        0.941667   -4.591987   -0.180772
     65          6           0       -0.492979   -6.135258    0.283717
     66          1           0       -1.268984   -5.740733   -0.388184
     67          6           0       -1.197825   -6.796572    1.478843
     68          1           0       -1.846675   -6.096840    2.015356
     69          1           0       -1.820142   -7.636650    1.150073
     70          1           0       -0.463763   -7.187648    2.195435
     71          6           0        0.314882   -7.175893   -0.508445
     72          1           0        0.793605   -6.726802   -1.386302
     73          1           0       -0.324157   -7.995147   -0.857240
     74          1           0        1.105743   -7.613398    0.114407
 ---------------------------------------------------------------------

 SCF Done:  E(RHF) =  -1124.07120851     A.U. after    9 cycles

 Alpha  occ. eigenvalues --  -20.55365 -11.27443 -11.23919 -11.22718 -11.22702
 Alpha  occ. eigenvalues --  -11.22495 -11.22474 -11.22369 -11.22148 -11.22068
 Alpha  occ. eigenvalues --  -11.22050 -11.22009 -11.21943 -11.21930 -11.21592
 Alpha  occ. eigenvalues --  -11.21574 -11.21512 -11.21507 -11.21447 -11.21437
 Alpha  occ. eigenvalues --  -11.21431 -11.21408 -11.21378 -11.21187 -11.21089
 Alpha  occ. eigenvalues --  -11.21062 -11.20887 -11.20791  -1.34667  -1.15865
 Alpha  occ. eigenvalues --   -1.13422  -1.09673  -1.07894  -1.06059  -1.05496
 Alpha  occ. eigenvalues --   -1.02659  -1.01329  -0.99611  -0.97708  -0.95912
 Alpha  occ. eigenvalues --   -0.92507  -0.92336  -0.92234  -0.91479  -0.90581
 Alpha  occ. eigenvalues --   -0.85974  -0.83859  -0.82429  -0.81826  -0.79257
 Alpha  occ. eigenvalues --   -0.76741  -0.76405  -0.74741  -0.73222  -0.71132
 Alpha  occ. eigenvalues --   -0.68955  -0.66843  -0.64792  -0.64335  -0.64157
 Alpha  occ. eigenvalues --   -0.63305  -0.62627  -0.61906  -0.60835  -0.60139
 Alpha  occ. eigenvalues --   -0.59610  -0.58855  -0.58260  -0.57911  -0.57870
 Alpha  occ. eigenvalues --   -0.57128  -0.56355  -0.55877  -0.55291  -0.54922
 Alpha  occ. eigenvalues --   -0.54317  -0.53649  -0.53325  -0.53045  -0.52651
 Alpha  occ. eigenvalues --   -0.52402  -0.51818  -0.51315  -0.51128  -0.50652
 Alpha  occ. eigenvalues --   -0.50562  -0.50197  -0.49321  -0.48486  -0.47956
 Alpha  occ. eigenvalues --   -0.47636  -0.47034  -0.46706  -0.46288  -0.45435
 Alpha  occ. eigenvalues --   -0.44862  -0.44677  -0.44371  -0.44210  -0.43762
 Alpha  occ. eigenvalues --   -0.43407  -0.42914  -0.42641  -0.42086  -0.41541
 Alpha  occ. eigenvalues --   -0.39778  -0.38471  -0.32797
 Alpha virt. eigenvalues --    0.18150   0.19845   0.21906   0.22443   0.22528
 Alpha virt. eigenvalues --    0.23219   0.23596   0.24427   0.24629   0.25232
 Alpha virt. eigenvalues --    0.26054   0.26385   0.26849   0.27517   0.28112

 Mulliken charges:
               1
     1  O   -0.765566
     2  H    0.433056
     3  C   -0.021430
     4  C   -0.160898
     5  H    0.150914
     6  C   -0.154289
     7  H    0.163825
     8  C   -0.154688
     9  H    0.154818
    10  C   -0.154280
    11  H    0.159873
    12  C   -0.302548
    13  H    0.152984
    14  H    0.161726
    15  C   -0.038567
    16  C   -0.316220
    17  H    0.165325
    18  H    0.158849
    19  C   -0.327685
    20  H    0.165408
    21  H    0.166047
    22  C   -0.328204
    23  H    0.161115
    24  H    0.162885
    25  C   -0.323979
    26  H    0.170335
    27  H    0.161139
    28  C   -0.147038
    29  H    0.156150
    30  C   -0.486928
    31  H    0.161365
    32  H    0.163991
    33  H    0.165105
    34  C    0.063626
    35  C   -0.326290
    36  H    0.160329
    37  H    0.169486
    38  C   -0.235170
    39  H    0.172060
    40  C   -0.480046
    41  H    0.162604
    42  H    0.168589
    43  H    0.165248
    44  C   -0.370760
    45  H    0.159938
    46  H    0.179357
    47  C   -0.327090
    48  H    0.171551
    49  H    0.178753
    50  C   -0.309300
    51  H    0.156952
    52  H    0.156155
    53  C    0.194434
    54  H    0.144549
    55  C   -0.481382
    56  H    0.157203
    57  H    0.157466
    58  H    0.160066
    59  C   -0.320527
    60  H    0.161892
    61  H    0.159155
    62  C   -0.303284
    63  H    0.151255
    64  H    0.154598
    65  C   -0.151989
    66  H    0.155532
    67  C   -0.476943
    68  H    0.162371
    69  H    0.158424
    70  H    0.152231
    71  C   -0.471515
    72  H    0.156968
    73  H    0.158316
    74  H    0.152597
 Sum of Mulliken charges =   0.00000

 Dipole moment (field-independent basis, Debye):
    X=              0.5318    Y=             -0.9171    Z=             -1.2913  Tot=              1.6707
 Quadrupole moment (field-independent basis, Debye-Ang):
   XX=           -173.6320   YY=           -191.3972   ZZ=           -190.9816
   XY=              2.1000   XZ=             -4.2369   YZ=            -11.6710

 ESP charges:
               1
     1  O   -0.765298
     2  H    0.426286
     3  C    0.437369
     4  C    0.038872
     5  H   -0.034318
     6  C    0.056454
     7  H   -0.038426
     8  C    0.054993
     9  H   -0.060633
    10  C   -0.077827
    11  H   -0.000233
    12  C   -0.368782
    13  H    0.078546
    14  H    0.084575
    15  C    0.511089
    16  C   -0.011275
    17  H   -0.009837
    18  H   -0.011575
    19  C    0.030538
    20  H    0.002443
    21  H    0.003194
    22  C   -0.086456
    23  H    0.008872
    24  H    0.017910
    25  C    0.171898
    26  H   -0.024982
    27  H   -0.027697
    28  C    0.386317
    29  H   -0.069207
    30  C   -0.420375
    31  H    0.085198
    32  H    0.081961
    33  H    0.093332
    34  C   -0.214128
    35  C   -0.323721
    36  H    0.043085
    37  H    0.053636
    38  C   -0.322945
    39  H    0.144205
    40  C   -0.271277
    41  H    0.026261
    42  H    0.073497
    43  H    0.035140
    44  C   -0.022167
    45  H    0.010304
    46  H    0.014864
    47  C    0.101696
    48  H   -0.003318
    49  H    0.007888
    50  C   -0.148436
    51  H    0.004026
    52  H    0.025937
    53  C    0.433025
    54  H   -0.065626
    55  C   -0.429879
    56  H    0.081119
    57  H    0.084588
    58  H    0.096556
    59  C    0.037764
    60  H   -0.034175
    61  H   -0.005582
    62  C   -0.032764
    63  H   -0.017900
    64  H   -0.021598
    65  C    0.476835
    66  H   -0.098961
    67  C   -0.309507
    68  H    0.056163
    69  H    0.053821
    70  H    0.055378
    71  C   -0.350883
    72  H    0.058574
    73  H    0.071188
    74  H    0.064390
 Sum of ESP charges =   0.00000

 Normal termination of Gaussian 09 at Mon Mar 20 12:44:13 2017.
