 Gaussian 09, Revision D.01,
 Gaussian 09:  EM64L-G09RevD.01 24-Apr-2013

 ----------------------------------------------------------------------
 #P HF/6-31G* SCF(Conver=6) NoSymm Test Pop=chelpg IOp(6/33=2) GFInput
 GFPrint
 ----------------------------------------------------------------------

 ----------------------------------------------
 MEP - Input generated by R.E.D.-III.x MOLECULE
 ----------------------------------------------
 Symbolic Z-matrix:
 Charge =  0 Multiplicity = 1

                          Input orientation:
 ---------------------------------------------------------------------
 Center     Atomic      Atomic             Coordinates (Angstroms)
 Number     Number       Type             X           Y           Z
 ---------------------------------------------------------------------
      1          8           0        4.907295   -0.183284   -7.294366
      2          1           0        5.859700   -0.277437   -7.160189
      3          6           0        0.000000    0.000000    0.000000
      4          6           0        1.549926    0.000000    0.000000
      5          1           0        1.838765    1.064995    0.000000
      6          6           0        2.193486   -0.597349   -1.257190
      7          1           0        1.922388   -1.659664   -1.335490
      8          6           0        1.677782    0.156748   -2.514463
      9          1           0        2.096006    1.173920   -2.434998
     10          6           0       -0.260224    0.647698    1.395778
     11          1           0        0.068591    1.689797    1.271253
     12          6           0       -0.455394    0.843345   -1.203959
     13          1           0       -0.129891    1.882393   -1.049817
     14          1           0       -1.550681    0.866862   -1.283222
     15          6           0        2.253671   -0.434641   -3.849725
     16          6           0        1.928879   -0.549073    1.389108
     17          1           0        2.916409   -0.206899    1.714298
     18          1           0        1.963846   -1.645570    1.378082
     19          6           0        0.135713    0.311310   -2.526664
     20          1           0       -0.333237   -0.650491   -2.757788
     21          1           0       -0.156974    0.989152   -3.336277
     22          6           0        0.789237   -0.038743    2.325950
     23          1           0        0.348203   -0.872828    2.878940
     24          1           0        1.167430    0.663228    3.076371
     25          6           0        3.726154   -0.506440   -1.189333
     26          1           0        4.115285   -1.241435   -0.472072
     27          1           0        4.018011    0.477172   -0.784932
     28          6           0       -1.723254    0.740036    1.918253
     29          1           0       -2.367149    0.852687    1.032374
     30          6           0       -0.594437   -1.422690   -0.092689
     31          1           0       -1.688906   -1.380710   -0.082273
     32          1           0       -0.301755   -1.931761   -1.014090
     33          1           0       -0.278559   -2.059305    0.738593
     34          6           0        3.759641   -0.698244   -3.706321
     35          6           0        2.050670    0.614039   -4.987716
     36          1           0        2.385034    1.592539   -4.615572
     37          1           0        0.981746    0.713253   -5.205474
     38          6           0        4.389278   -0.708021   -2.522147
     39          1           0        5.466554   -0.877265   -2.506571
     40          6           0        1.550285   -1.762752   -4.238483
     41          1           0        0.509101   -1.593911   -4.530794
     42          1           0        2.045866   -2.246491   -5.083834
     43          1           0        1.562504   -2.474450   -3.407240
     44          6           0        4.529861   -0.952804   -4.988795
     45          1           0        5.600679   -1.034913   -4.762005
     46          1           0        4.228620   -1.907840   -5.442058
     47          6           0        2.798682    0.306331   -6.293045
     48          1           0        2.420781   -0.611841   -6.759919
     49          1           0        2.638273    1.114430   -7.015764
     50          6           0       -2.237083   -0.492409    2.702877
     51          1           0       -1.828324   -1.410424    2.272595
     52          1           0       -1.856894   -0.446359    3.733914
     53          6           0        4.291424    0.139348   -6.041367
     54          1           0        4.699783    1.092559   -5.666672
     55          6           0       -1.892341    2.018932    2.764231
     56          1           0       -1.213310    2.007205    3.625966
     57          1           0       -2.911773    2.124280    3.149214
     58          1           0       -1.668403    2.915738    2.175946
     59          6           0       -3.770898   -0.603938    2.740667
     60          1           0       -4.199679    0.345424    3.085392
     61          1           0       -4.145958   -0.743459    1.717530
     62          6           0       -4.308902   -1.718943    3.656237
     63          1           0       -5.406544   -1.650238    3.685968
     64          1           0       -3.966042   -1.521235    4.682209
     65          6           0       -3.929361   -3.169076    3.287226
     66          1           0       -2.832684   -3.243580    3.263163
     67          6           0       -4.461063   -3.580206    1.905070
     68          1           0       -4.059177   -2.951751    1.103821
     69          1           0       -4.193203   -4.617742    1.675079
     70          1           0       -5.555771   -3.504376    1.871277
     71          6           0       -4.432025   -4.139760    4.367944
     72          1           0       -4.028401   -3.883423    5.354249
     73          1           0       -4.139666   -5.171984    4.143677
     74          1           0       -5.527042   -4.112567    4.439163
 ---------------------------------------------------------------------

 SCF Done:  E(RHF) =  -1124.07638591     A.U. after    9 cycles

 Alpha  occ. eigenvalues --  -20.55371 -11.27448 -11.23946 -11.22729 -11.22447
 Alpha  occ. eigenvalues --  -11.22434 -11.22427 -11.22405 -11.22156 -11.22094
 Alpha  occ. eigenvalues --  -11.22017 -11.21955 -11.21935 -11.21870 -11.21572
 Alpha  occ. eigenvalues --  -11.21571 -11.21556 -11.21512 -11.21496 -11.21482
 Alpha  occ. eigenvalues --  -11.21416 -11.21403 -11.21266 -11.21205 -11.21050
 Alpha  occ. eigenvalues --  -11.21041 -11.20980 -11.20973  -1.34675  -1.15922
 Alpha  occ. eigenvalues --   -1.13482  -1.09622  -1.07970  -1.06108  -1.05510
 Alpha  occ. eigenvalues --   -1.02661  -1.01382  -0.99688  -0.97787  -0.95756
 Alpha  occ. eigenvalues --   -0.92462  -0.92346  -0.91899  -0.91365  -0.90706
 Alpha  occ. eigenvalues --   -0.85985  -0.83441  -0.82401  -0.81934  -0.79664
 Alpha  occ. eigenvalues --   -0.76681  -0.76439  -0.74935  -0.72873  -0.71624
 Alpha  occ. eigenvalues --   -0.68996  -0.66871  -0.64698  -0.64425  -0.63610
 Alpha  occ. eigenvalues --   -0.63409  -0.62748  -0.62043  -0.61275  -0.60600
 Alpha  occ. eigenvalues --   -0.59149  -0.58889  -0.58625  -0.58187  -0.57469
 Alpha  occ. eigenvalues --   -0.56700  -0.56131  -0.55626  -0.55410  -0.54541
 Alpha  occ. eigenvalues --   -0.53939  -0.53712  -0.53327  -0.53098  -0.52798
 Alpha  occ. eigenvalues --   -0.52402  -0.52333  -0.51760  -0.51264  -0.51011
 Alpha  occ. eigenvalues --   -0.50600  -0.49519  -0.48766  -0.48512  -0.48071
 Alpha  occ. eigenvalues --   -0.47276  -0.47009  -0.46591  -0.46215  -0.45686
 Alpha  occ. eigenvalues --   -0.45069  -0.44825  -0.44557  -0.44255  -0.43652
 Alpha  occ. eigenvalues --   -0.43401  -0.42976  -0.42384  -0.42179  -0.41739
 Alpha  occ. eigenvalues --   -0.39830  -0.38669  -0.32806
 Alpha virt. eigenvalues --    0.18143   0.20289   0.22229   0.22397   0.22696
 Alpha virt. eigenvalues --    0.23179   0.23771   0.23945   0.24549   0.25501
 Alpha virt. eigenvalues --    0.26446   0.26797   0.26976   0.27437   0.28156

 Mulliken charges:
               1
     1  O   -0.765583
     2  H    0.433066
     3  C   -0.031160
     4  C   -0.157887
     5  H    0.151005
     6  C   -0.153838
     7  H    0.164149
     8  C   -0.155244
     9  H    0.155342
    10  C   -0.148016
    11  H    0.156458
    12  C   -0.296180
    13  H    0.151703
    14  H    0.157936
    15  C   -0.038296
    16  C   -0.318213
    17  H    0.165355
    18  H    0.158220
    19  C   -0.328495
    20  H    0.164736
    21  H    0.166798
    22  C   -0.329250
    23  H    0.167531
    24  H    0.164261
    25  C   -0.324045
    26  H    0.170216
    27  H    0.161234
    28  C   -0.143611
    29  H    0.158103
    30  C   -0.489922
    31  H    0.162466
    32  H    0.166385
    33  H    0.163615
    34  C    0.063321
    35  C   -0.326465
    36  H    0.160390
    37  H    0.169661
    38  C   -0.235064
    39  H    0.172117
    40  C   -0.480411
    41  H    0.162293
    42  H    0.168746
    43  H    0.165588
    44  C   -0.370769
    45  H    0.159986
    46  H    0.179317
    47  C   -0.327162
    48  H    0.171516
    49  H    0.178822
    50  C   -0.319561
    51  H    0.169117
    52  H    0.151195
    53  C    0.194489
    54  H    0.144589
    55  C   -0.482423
    56  H    0.154771
    57  H    0.161241
    58  H    0.158125
    59  C   -0.313733
    60  H    0.158295
    61  H    0.153184
    62  C   -0.297489
    63  H    0.150894
    64  H    0.151968
    65  C   -0.152409
    66  H    0.155224
    67  C   -0.477042
    68  H    0.161554
    69  H    0.158453
    70  H    0.152308
    71  C   -0.471689
    72  H    0.157731
    73  H    0.158033
    74  H    0.152451
 Sum of Mulliken charges =   0.00000

 Dipole moment (field-independent basis, Debye):
    X=              0.5752    Y=              0.2149    Z=              1.5363  Tot=              1.6545
 Quadrupole moment (field-independent basis, Debye-Ang):
   XX=           -171.8381   YY=           -181.8535   ZZ=           -202.7089
   XY=             -0.2457   XZ=              3.7541   YZ=             -0.9990

 ESP charges:
               1
     1  O   -0.766463
     2  H    0.425973
     3  C    0.553605
     4  C    0.001642
     5  H   -0.028848
     6  C    0.151503
     7  H   -0.070672
     8  C   -0.056663
     9  H   -0.049558
    10  C   -0.076323
    11  H   -0.020823
    12  C   -0.284460
    13  H    0.027006
    14  H    0.042864
    15  C    0.603503
    16  C   -0.155582
    17  H    0.017621
    18  H    0.018327
    19  C    0.073713
    20  H   -0.021729
    21  H   -0.000921
    22  C    0.087437
    23  H   -0.041607
    24  H   -0.013864
    25  C    0.165693
    26  H   -0.022811
    27  H   -0.028379
    28  C    0.163759
    29  H   -0.048503
    30  C   -0.508032
    31  H    0.088856
    32  H    0.107686
    33  H    0.103233
    34  C   -0.262462
    35  C   -0.295580
    36  H    0.032802
    37  H    0.036512
    38  C   -0.325250
    39  H    0.147406
    40  C   -0.313349
    41  H    0.033067
    42  H    0.081338
    43  H    0.043492
    44  C    0.031544
    45  H   -0.002377
    46  H   -0.000601
    47  C    0.104386
    48  H   -0.011291
    49  H    0.006836
    50  C    0.061002
    51  H    0.004763
    52  H   -0.023886
    53  C    0.428292
    54  H   -0.070761
    55  C   -0.317510
    56  H    0.066653
    57  H    0.072387
    58  H    0.067663
    59  C   -0.018726
    60  H    0.013584
    61  H   -0.008497
    62  C   -0.120209
    63  H    0.011416
    64  H    0.010169
    65  C    0.465188
    66  H   -0.098676
    67  C   -0.291917
    68  H    0.049492
    69  H    0.050681
    70  H    0.058097
    71  C   -0.370882
    72  H    0.067028
    73  H    0.080599
    74  H    0.070394
 Sum of ESP charges =   0.00000

 Normal termination of Gaussian 09 at Mon Mar 20 12:22:21 2017.
