 Gaussian 09, Revision D.01,
 Gaussian 09:  EM64L-G09RevD.01 24-Apr-2013

 ----------------------------------------------------------------------
 #P HF/6-31G* SCF(Conver=6) NoSymm Test Pop=chelpg IOp(6/33=2) GFInput
 GFPrint
 ----------------------------------------------------------------------

 ----------------------------------------------
 MEP - Input generated by R.E.D.-III.x MOLECULE
 ----------------------------------------------
 Symbolic Z-matrix:
 Charge =  0 Multiplicity = 1

                          Input orientation:
 ---------------------------------------------------------------------
 Center     Atomic      Atomic             Coordinates (Angstroms)
 Number     Number       Type             X           Y           Z
 ---------------------------------------------------------------------
      1          8           0       -3.734853   -3.609361   -4.124428
      2          1           0       -3.881781   -4.452266   -3.675131
      3          6           0        1.600561    2.064100    0.000000
      4          6           0        1.327141    0.608317    0.472021
      5          1           0        2.118175    0.000000    0.000000
      6          6           0        0.000000    0.000000    0.000000
      7          1           0       -0.833404    0.577286    0.424860
      8          6           0       -0.082851    0.051634   -1.548068
      9          1           0        0.695411   -0.641838   -1.907702
     10          6           0        2.987132    2.318510    0.687989
     11          1           0        3.726544    1.745859    0.105366
     12          6           0        1.593369    2.030514   -1.542389
     13          1           0        2.438042    1.414457   -1.883600
     14          1           0        1.742445    3.026467   -1.971336
     15          6           0       -1.439759   -0.509790   -2.101277
     16          6           0        1.639302    0.632723    1.975527
     17          1           0        1.887867   -0.358174    2.368514
     18          1           0        0.772397    0.989895    2.545162
     19          6           0        0.276690    1.450712   -2.099566
     20          1           0       -0.533359    2.155234   -1.882807
     21          1           0        0.352877    1.408063   -3.191952
     22          6           0        2.830327    1.623764    2.085691
     23          1           0        2.648527    2.371834    2.866383
     24          1           0        3.748422    1.100910    2.369456
     25          6           0       -0.140942   -1.452972    0.482166
     26          1           0       -0.354955   -1.474085    1.559055
     27          1           0        0.824594   -1.973310    0.367356
     28          6           0        3.532318    3.765233    0.806864
     29          1           0        2.834648    4.325062    1.447210
     30          6           0        0.546575    3.063347    0.530937
     31          1           0        0.731146    4.067654    0.135875
     32          1           0       -0.470354    2.786220    0.242598
     33          1           0        0.563525    3.135988    1.622624
     34          6           0       -1.803746   -1.816927   -1.383070
     35          6           0       -1.266466   -0.822087   -3.620500
     36          1           0       -0.330544   -1.383287   -3.750227
     37          1           0       -1.145535    0.115498   -4.173921
     38          6           0       -1.203876   -2.219156   -0.252959
     39          1           0       -1.500911   -3.173738    0.182938
     40          6           0       -2.599600    0.504055   -1.910168
     41          1           0       -2.472157    1.383135   -2.549730
     42          1           0       -3.565828    0.060642   -2.163281
     43          1           0       -2.662214    0.841702   -0.871021
     44          6           0       -2.895414   -2.659203   -2.016650
     45          1           0       -2.996040   -3.602771   -1.464896
     46          1           0       -3.867674   -2.150358   -1.952567
     47          6           0       -2.410852   -1.629394   -4.250417
     48          1           0       -3.349588   -1.061562   -4.240281
     49          1           0       -2.184558   -1.842380   -5.301370
     50          6           0        4.923798    3.777617    1.512157
     51          1           0        5.109395    2.807064    1.983392
     52          1           0        5.709783    3.884797    0.752357
     53          6           0       -2.631547   -2.938187   -3.503384
     54          1           0       -1.725435   -3.559674   -3.595484
     55          6           0        3.618823    4.495740   -0.545934
     56          1           0        4.203886    3.912063   -1.267521
     57          1           0        4.111730    5.465984   -0.434593
     58          1           0        2.635532    4.680509   -0.985486
     59          6           0        5.101493    4.847887    2.609396
     60          1           0        4.303642    4.709027    3.352168
     61          1           0        6.038348    4.644455    3.143911
     62          6           0        5.084541    6.321659    2.162252
     63          1           0        5.081711    6.953780    3.062705
     64          1           0        4.136305    6.534228    1.650364
     65          6           0        6.249978    6.784332    1.261202
     66          1           0        6.282599    6.135471    0.374359
     67          6           0        7.612815    6.680985    1.965182
     68          1           0        7.851185    5.653394    2.257500
     69          1           0        8.418391    7.031382    1.309933
     70          1           0        7.629891    7.299210    2.872269
     71          6           0        6.005717    8.221579    0.773542
     72          1           0        5.058976    8.303826    0.227223
     73          1           0        6.807909    8.558271    0.106978
     74          1           0        5.962329    8.918984    1.620041
 ---------------------------------------------------------------------

 SCF Done:  E(RHF) =  -1124.07375059     A.U. after    9 cycles

 Alpha  occ. eigenvalues --  -20.55358 -11.27435 -11.23900 -11.22707 -11.22669
 Alpha  occ. eigenvalues --  -11.22435 -11.22332 -11.22318 -11.22142 -11.22084
 Alpha  occ. eigenvalues --  -11.22055 -11.21999 -11.21929 -11.21921 -11.21660
 Alpha  occ. eigenvalues --  -11.21574 -11.21486 -11.21467 -11.21454 -11.21398
 Alpha  occ. eigenvalues --  -11.21355 -11.21345 -11.21340 -11.21178 -11.21071
 Alpha  occ. eigenvalues --  -11.21035 -11.20937 -11.20892  -1.34661  -1.15864
 Alpha  occ. eigenvalues --   -1.13437  -1.09623  -1.07932  -1.06036  -1.05438
 Alpha  occ. eigenvalues --   -1.02667  -1.01313  -0.99586  -0.97734  -0.95812
 Alpha  occ. eigenvalues --   -0.92773  -0.92404  -0.91979  -0.91259  -0.90661
 Alpha  occ. eigenvalues --   -0.85965  -0.83595  -0.82075  -0.81737  -0.79297
 Alpha  occ. eigenvalues --   -0.76708  -0.76411  -0.74822  -0.73504  -0.71853
 Alpha  occ. eigenvalues --   -0.68988  -0.66836  -0.64986  -0.64332  -0.63883
 Alpha  occ. eigenvalues --   -0.63259  -0.62290  -0.61634  -0.60978  -0.60552
 Alpha  occ. eigenvalues --   -0.59504  -0.59013  -0.58550  -0.57994  -0.57068
 Alpha  occ. eigenvalues --   -0.56773  -0.56018  -0.55636  -0.55163  -0.54840
 Alpha  occ. eigenvalues --   -0.54259  -0.54040  -0.53519  -0.53041  -0.52937
 Alpha  occ. eigenvalues --   -0.52491  -0.52312  -0.51412  -0.51216  -0.50710
 Alpha  occ. eigenvalues --   -0.50263  -0.50061  -0.49019  -0.48357  -0.47839
 Alpha  occ. eigenvalues --   -0.47317  -0.46932  -0.46902  -0.46250  -0.45403
 Alpha  occ. eigenvalues --   -0.45149  -0.44509  -0.44185  -0.43988  -0.43571
 Alpha  occ. eigenvalues --   -0.43224  -0.43099  -0.42915  -0.42630  -0.41638
 Alpha  occ. eigenvalues --   -0.39791  -0.38433  -0.32787
 Alpha virt. eigenvalues --    0.18176   0.20961   0.21994   0.22233   0.22561
 Alpha virt. eigenvalues --    0.23132   0.24134   0.24456   0.24790   0.25842
 Alpha virt. eigenvalues --    0.26112   0.26559   0.26772   0.27521   0.27656

 Mulliken charges:
               1
     1  O   -0.765607
     2  H    0.433033
     3  C   -0.029629
     4  C   -0.158086
     5  H    0.151024
     6  C   -0.153767
     7  H    0.163583
     8  C   -0.154791
     9  H    0.155015
    10  C   -0.142511
    11  H    0.153044
    12  C   -0.298276
    13  H    0.151137
    14  H    0.164094
    15  C   -0.038349
    16  C   -0.316745
    17  H    0.165584
    18  H    0.158469
    19  C   -0.327741
    20  H    0.163851
    21  H    0.165980
    22  C   -0.333835
    23  H    0.161039
    24  H    0.166465
    25  C   -0.324483
    26  H    0.170155
    27  H    0.161209
    28  C   -0.137820
    29  H    0.157311
    30  C   -0.489606
    31  H    0.162757
    32  H    0.164929
    33  H    0.163905
    34  C    0.063503
    35  C   -0.326332
    36  H    0.160347
    37  H    0.169552
    38  C   -0.235011
    39  H    0.171955
    40  C   -0.480172
    41  H    0.162464
    42  H    0.168532
    43  H    0.165274
    44  C   -0.370702
    45  H    0.159888
    46  H    0.179315
    47  C   -0.327102
    48  H    0.171480
    49  H    0.178757
    50  C   -0.324371
    51  H    0.166137
    52  H    0.158390
    53  C    0.194471
    54  H    0.144549
    55  C   -0.490829
    56  H    0.154151
    57  H    0.166739
    58  H    0.160148
    59  C   -0.312284
    60  H    0.154842
    61  H    0.156911
    62  C   -0.305367
    63  H    0.151501
    64  H    0.156378
    65  C   -0.152805
    66  H    0.155948
    67  C   -0.475740
    68  H    0.161786
    69  H    0.158406
    70  H    0.152018
    71  C   -0.472745
    72  H    0.157360
    73  H    0.158400
    74  H    0.152921
 Sum of Mulliken charges =   0.00000

 Dipole moment (field-independent basis, Debye):
    X=              1.0336    Y=             -0.3744    Z=              1.3491  Tot=              1.7402
 Quadrupole moment (field-independent basis, Debye-Ang):
   XX=           -187.3066   YY=           -176.3777   ZZ=           -190.8753
   XY=             -1.7343   XZ=             -8.5662   YZ=             -4.3272

 ESP charges:
               1
     1  O   -0.765403
     2  H    0.426512
     3  C    0.608066
     4  C    0.046058
     5  H   -0.022692
     6  C   -0.016462
     7  H   -0.028983
     8  C   -0.027603
     9  H   -0.040224
    10  C   -0.229535
    11  H   -0.008816
    12  C   -0.189532
    13  H    0.000447
    14  H    0.021354
    15  C    0.542593
    16  C   -0.068551
    17  H   -0.000240
    18  H    0.004135
    19  C    0.026091
    20  H   -0.014733
    21  H    0.003062
    22  C   -0.072466
    23  H    0.010043
    24  H    0.044587
    25  C    0.250099
    26  H   -0.033702
    27  H   -0.042537
    28  C    0.341230
    29  H   -0.038443
    30  C   -0.515371
    31  H    0.084477
    32  H    0.110236
    33  H    0.102302
    34  C   -0.190061
    35  C   -0.300402
    36  H    0.034468
    37  H    0.044028
    38  C   -0.364013
    39  H    0.147857
    40  C   -0.269277
    41  H    0.029901
    42  H    0.068555
    43  H    0.033373
    44  C   -0.016882
    45  H    0.008152
    46  H    0.011365
    47  C    0.108909
    48  H   -0.010854
    49  H    0.005232
    50  C    0.011726
    51  H   -0.017303
    52  H   -0.017192
    53  C    0.432539
    54  H   -0.070141
    55  C   -0.339694
    56  H    0.057152
    57  H    0.069747
    58  H    0.064551
    59  C   -0.098801
    60  H    0.007461
    61  H    0.015046
    62  C    0.056652
    63  H   -0.031619
    64  H   -0.047539
    65  C    0.446882
    66  H   -0.086526
    67  C   -0.321569
    68  H    0.058313
    69  H    0.059740
    70  H    0.059547
    71  C   -0.354149
    72  H    0.058966
    73  H    0.073505
    74  H    0.066355
 Sum of ESP charges =   0.00000

 Normal termination of Gaussian 09 at Mon Mar 20 12:05:32 2017.
