 Gaussian 09, Revision D.01,
 Gaussian 09:  EM64L-G09RevD.01 24-Apr-2013

 ----------------------------------------------------------------------
 #P HF/6-31G* SCF(Conver=6) NoSymm Test Pop=chelpg IOp(6/33=2) GFInput
 GFPrint
 ----------------------------------------------------------------------

 ----------------------------------------------
 MEP - Input generated by R.E.D.-III.x MOLECULE
 ----------------------------------------------
 Symbolic Z-matrix:
 Charge =  0 Multiplicity = 1

                          Input orientation:
 ---------------------------------------------------------------------
 Center     Atomic      Atomic             Coordinates (Angstroms)
 Number     Number       Type             X           Y           Z
 ---------------------------------------------------------------------
      1          8           0        4.904540   -0.187603   -7.296297
      2          1           0        5.857266   -0.279191   -7.162623
      3          6           0        0.000000    0.000000    0.000000
      4          6           0        1.550413    0.000000    0.000000
      5          1           0        1.839534    1.064707    0.000000
      6          6           0        2.194858   -0.596696   -1.257018
      7          1           0        1.927455   -1.660008   -1.334070
      8          6           0        1.676712    0.153899   -2.515259
      9          1           0        2.092208    1.172346   -2.437861
     10          6           0       -0.256050    0.648209    1.396684
     11          1           0        0.103683    1.680205    1.275575
     12          6           0       -0.455246    0.841018   -1.205115
     13          1           0       -0.128506    1.880211   -1.054203
     14          1           0       -1.550479    0.865264   -1.283823
     15          6           0        2.253577   -0.438490   -3.849566
     16          6           0        1.929112   -0.551481    1.388736
     17          1           0        2.909175   -0.195197    1.721312
     18          1           0        1.981993   -1.647172    1.371434
     19          6           0        0.134378    0.304024   -2.526335
     20          1           0       -0.332215   -0.660490   -2.751022
     21          1           0       -0.161415    0.976695   -3.339104
     22          6           0        0.776155   -0.066716    2.323371
     23          1           0        0.326096   -0.919020    2.839414
     24          1           0        1.141302    0.609328    3.103555
     25          6           0        3.727347   -0.501304   -1.189756
     26          1           0        4.118845   -1.233820   -0.471234
     27          1           0        4.016656    0.483927   -0.787489
     28          6           0       -1.720642    0.794059    1.914967
     29          1           0       -2.351960    0.917203    1.023155
     30          6           0       -0.590579   -1.424366   -0.089542
     31          1           0       -1.684014   -1.381903   -0.124602
     32          1           0       -0.262050   -1.951677   -0.988374
     33          1           0       -0.309805   -2.044199    0.766624
     34          6           0        3.760228   -0.698074   -3.706418
     35          6           0        2.047743    0.607819   -4.989260
     36          1           0        2.380565    1.587549   -4.618981
     37          1           0        0.978495    0.704726   -5.206442
     38          6           0        4.390458   -0.703777   -2.522508
     39          1           0        5.468177   -0.870215   -2.507048
     40          6           0        1.553165   -1.768890   -4.235877
     41          1           0        0.510742   -1.603298   -4.525684
     42          1           0        2.048111   -2.251693   -5.082114
     43          1           0        1.569547   -2.480200   -3.404364
     44          6           0        4.530476   -0.953098   -4.988801
     45          1           0        5.601599   -1.031978   -4.762316
     46          1           0        4.231557   -1.909794   -5.440146
     47          6           0        2.795530    0.299380   -6.294571
     48          1           0        2.419477   -0.620643   -6.759172
     49          1           0        2.632687    1.105641   -7.018785
     50          6           0       -2.262891   -0.413902    2.716076
     51          1           0       -2.093037   -1.337172    2.153010
     52          1           0       -1.675943   -0.514511    3.638510
     53          6           0        4.288800    0.136344   -6.043570
     54          1           0        4.695277    1.091281   -5.671253
     55          6           0       -1.848423    2.093346    2.737144
     56          1           0       -1.235767    2.044339    3.646422
     57          1           0       -2.880294    2.287674    3.044590
     58          1           0       -1.512376    2.959231    2.156284
     59          6           0       -3.749465   -0.345739    3.129865
     60          1           0       -3.970681   -1.239742    3.726821
     61          1           0       -3.898419    0.498622    3.813845
     62          6           0       -4.782653   -0.225483    1.994021
     63          1           0       -4.604755    0.704643    1.437453
     64          1           0       -5.778374   -0.112791    2.448263
     65          6           0       -4.847101   -1.392721    0.986485
     66          1           0       -3.854220   -1.509452    0.529614
     67          6           0       -5.837593   -1.065298   -0.142580
     68          1           0       -5.565741   -0.135979   -0.656372
     69          1           0       -5.868600   -1.865726   -0.890628
     70          1           0       -6.853745   -0.941046    0.253356
     71          6           0       -5.214870   -2.727332    1.654464
     72          1           0       -4.480688   -3.029163    2.408293
     73          1           0       -5.274843   -3.532151    0.913009
     74          1           0       -6.192463   -2.658102    2.149232
 ---------------------------------------------------------------------

 SCF Done:  E(RHF) =  -1124.07347664     A.U. after    9 cycles

 Alpha  occ. eigenvalues --  -20.55369 -11.27446 -11.23941 -11.22724 -11.22475
 Alpha  occ. eigenvalues --  -11.22442 -11.22424 -11.22415 -11.22153 -11.22080
 Alpha  occ. eigenvalues --  -11.22009 -11.21951 -11.21930 -11.21898 -11.21567
 Alpha  occ. eigenvalues --  -11.21565 -11.21537 -11.21495 -11.21482 -11.21465
 Alpha  occ. eigenvalues --  -11.21412 -11.21385 -11.21347 -11.21201 -11.21101
 Alpha  occ. eigenvalues --  -11.21067 -11.20951 -11.20910  -1.34672  -1.15915
 Alpha  occ. eigenvalues --   -1.13471  -1.09644  -1.07910  -1.06087  -1.05456
 Alpha  occ. eigenvalues --   -1.02645  -1.01349  -0.99529  -0.97757  -0.95722
 Alpha  occ. eigenvalues --   -0.92534  -0.92380  -0.91872  -0.91522  -0.90759
 Alpha  occ. eigenvalues --   -0.85982  -0.84132  -0.82503  -0.81908  -0.79152
 Alpha  occ. eigenvalues --   -0.76671  -0.76496  -0.74957  -0.72456  -0.71247
 Alpha  occ. eigenvalues --   -0.68993  -0.66869  -0.64912  -0.64432  -0.63837
 Alpha  occ. eigenvalues --   -0.63312  -0.62913  -0.62028  -0.61025  -0.60613
 Alpha  occ. eigenvalues --   -0.59204  -0.58797  -0.58589  -0.58090  -0.57979
 Alpha  occ. eigenvalues --   -0.56639  -0.56314  -0.55454  -0.55255  -0.54879
 Alpha  occ. eigenvalues --   -0.54016  -0.53412  -0.53332  -0.52975  -0.52829
 Alpha  occ. eigenvalues --   -0.52455  -0.52090  -0.51849  -0.51316  -0.51119
 Alpha  occ. eigenvalues --   -0.50666  -0.50080  -0.48540  -0.48384  -0.48019
 Alpha  occ. eigenvalues --   -0.47451  -0.47163  -0.46602  -0.46239  -0.45418
 Alpha  occ. eigenvalues --   -0.45121  -0.44721  -0.44584  -0.43944  -0.43604
 Alpha  occ. eigenvalues --   -0.43315  -0.42962  -0.42610  -0.42153  -0.41555
 Alpha  occ. eigenvalues --   -0.39823  -0.38647  -0.32800
 Alpha virt. eigenvalues --    0.18145   0.20198   0.22105   0.22259   0.22626
 Alpha virt. eigenvalues --    0.23575   0.23610   0.24244   0.24677   0.25721
 Alpha virt. eigenvalues --    0.26005   0.26636   0.27078   0.27171   0.27976

 Mulliken charges:
               1
     1  O   -0.765584
     2  H    0.433064
     3  C   -0.030503
     4  C   -0.158191
     5  H    0.151271
     6  C   -0.154065
     7  H    0.164053
     8  C   -0.155144
     9  H    0.155281
    10  C   -0.145560
    11  H    0.156151
    12  C   -0.296557
    13  H    0.151442
    14  H    0.157244
    15  C   -0.038414
    16  C   -0.317711
    17  H    0.165144
    18  H    0.158570
    19  C   -0.328198
    20  H    0.164969
    21  H    0.166661
    22  C   -0.330174
    23  H    0.166934
    24  H    0.164250
    25  C   -0.323909
    26  H    0.170255
    27  H    0.161200
    28  C   -0.149569
    29  H    0.161113
    30  C   -0.496432
    31  H    0.168473
    32  H    0.165713
    33  H    0.164743
    34  C    0.063374
    35  C   -0.326474
    36  H    0.160366
    37  H    0.169638
    38  C   -0.235080
    39  H    0.172104
    40  C   -0.480298
    41  H    0.162334
    42  H    0.168706
    43  H    0.165492
    44  C   -0.370784
    45  H    0.159979
    46  H    0.179309
    47  C   -0.327134
    48  H    0.171514
    49  H    0.178813
    50  C   -0.317877
    51  H    0.164492
    52  H    0.155979
    53  C    0.194473
    54  H    0.144586
    55  C   -0.484772
    56  H    0.154139
    57  H    0.163561
    58  H    0.158197
    59  C   -0.317228
    60  H    0.158921
    61  H    0.159401
    62  C   -0.303165
    63  H    0.155155
    64  H    0.151239
    65  C   -0.160236
    66  H    0.161211
    67  C   -0.471140
    68  H    0.156556
    69  H    0.158227
    70  H    0.153170
    71  C   -0.476020
    72  H    0.161863
    73  H    0.158441
    74  H    0.152449
 Sum of Mulliken charges =   0.00000

 Dipole moment (field-independent basis, Debye):
    X=              0.5590    Y=              0.1740    Z=              1.5906  Tot=              1.6950
 Quadrupole moment (field-independent basis, Debye-Ang):
   XX=           -172.1769   YY=           -181.4742   ZZ=           -202.3316
   XY=              0.2806   XZ=              3.0440   YZ=             -1.3145

 ESP charges:
               1
     1  O   -0.762402
     2  H    0.428072
     3  C    0.421786
     4  C    0.093774
     5  H   -0.035325
     6  C    0.050647
     7  H   -0.041330
     8  C    0.085538
     9  H   -0.068919
    10  C   -0.137588
    11  H    0.002922
    12  C   -0.221957
    13  H    0.013595
    14  H    0.031207
    15  C    0.453456
    16  C   -0.186453
    17  H    0.024886
    18  H    0.024943
    19  C    0.045001
    20  H   -0.018611
    21  H   -0.004610
    22  C    0.083508
    23  H   -0.023871
    24  H   -0.009176
    25  C    0.170828
    26  H   -0.019202
    27  H   -0.029535
    28  C    0.278805
    29  H   -0.060094
    30  C   -0.458913
    31  H    0.111477
    32  H    0.090507
    33  H    0.096992
    34  C   -0.164542
    35  C   -0.324660
    36  H    0.048750
    37  H    0.058608
    38  C   -0.335213
    39  H    0.144305
    40  C   -0.310636
    41  H    0.045471
    42  H    0.084994
    43  H    0.046122
    44  C   -0.065818
    45  H    0.021102
    46  H    0.029500
    47  C    0.086230
    48  H    0.006130
    49  H    0.013837
    50  C    0.036786
    51  H   -0.022038
    52  H   -0.025371
    53  C    0.424065
    54  H   -0.057760
    55  C   -0.334908
    56  H    0.063239
    57  H    0.080700
    58  H    0.060931
    59  C   -0.036650
    60  H   -0.002678
    61  H    0.008335
    62  C   -0.092391
    63  H   -0.001399
    64  H   -0.002974
    65  C    0.550882
    66  H   -0.150731
    67  C   -0.375570
    68  H    0.066716
    69  H    0.077458
    70  H    0.062719
    71  C   -0.294413
    72  H    0.055059
    73  H    0.046894
    74  H    0.048960
 Sum of ESP charges =   0.00000

 Normal termination of Gaussian 09 at Mon Mar 20 12:29:50 2017.
