 Gaussian 09, Revision D.01,
 Gaussian 09:  EM64L-G09RevD.01 24-Apr-2013

 ----------------------------------------------------------------------
 #P HF/6-31G* SCF(Conver=6) NoSymm Test Pop=chelpg IOp(6/33=2) GFInput
 GFPrint
 ----------------------------------------------------------------------

 ----------------------------------------------
 MEP - Input generated by R.E.D.-III.x MOLECULE
 ----------------------------------------------
 Symbolic Z-matrix:
 Charge =  0 Multiplicity = 1

                          Input orientation:
 ---------------------------------------------------------------------
 Center     Atomic      Atomic             Coordinates (Angstroms)
 Number     Number       Type             X           Y           Z
 ---------------------------------------------------------------------
      1          8           0        4.212588    6.549131    4.124679
      2          1           0        4.991144    6.900337    3.672513
      3          6           0        0.000000    0.000000    0.000000
      4          6           0        1.345115    0.618975   -0.473386
      5          1           0        2.126887    0.000000    0.000000
      6          6           0        1.612211    2.053709    0.000000
      7          1           0        0.847507    2.721863   -0.421020
      8          6           0        1.547018    2.117071    1.548605
      9          1           0        2.410896    1.530561    1.903112
     10          6           0        0.091780   -1.403162   -0.694198
     11          1           0        0.844834   -1.967065   -0.123988
     12          6           0        0.034613    0.009100    1.542011
     13          1           0        0.836877   -0.663081    1.879636
     14          1           0       -0.895744   -0.377508    1.970607
     15          6           0        1.762344    3.568416    2.105455
     16          6           0        1.401070    0.309622   -1.977624
     17          1           0        2.425919    0.288194   -2.361499
     18          1           0        0.865368    1.076130   -2.551417
     19          6           0        0.280069    1.425197    2.103401
     20          1           0       -0.601367    2.040281    1.893272
     21          1           0        0.345166    1.357730    3.195294
     22          6           0        0.697586   -1.071054   -2.098021
     23          1           0       -0.094128   -1.037440   -2.855688
     24          1           0        1.395037   -1.851636   -2.418225
     25          6           0        2.985308    2.546088   -0.485077
     26          1           0        2.950717    2.759848   -1.561665
     27          1           0        3.726156    1.736914   -0.372913
     28          6           0       -1.173222   -2.291675   -0.790781
     29          1           0       -1.924192   -1.729954   -1.365388
     30          6           0       -1.229097    0.778827   -0.521791
     31          1           0       -2.155059    0.346054   -0.128136
     32          1           0       -1.212795    1.829836   -0.223229
     33          1           0       -1.297376    0.755024   -1.613686
     34          6           0        2.936845    4.243736    1.383394
     35          6           0        2.116598    3.471758    3.622287
     36          1           0        2.892025    2.702694    3.744474
     37          1           0        1.241031    3.121242    4.179479
     38          6           0        3.469892    3.763200    0.250377
     39          1           0        4.320620    4.286462   -0.187712
     40          6           0        0.494304    4.445198    1.924368
     41          1           0       -0.322936    4.104715    2.567993
     42          1           0        0.689003    5.489961    2.178852
     43          1           0        0.145351    4.425690    0.887261
     44          6           0        3.487946    5.507368    2.017536
     45          1           0        4.375097    5.838320    1.462282
     46          1           0        2.755449    6.324880    1.959223
     47          6           0        2.620607    4.777591    4.253941
     48          1           0        1.838954    5.547498    4.250474
     49          1           0        2.888445    4.607261    5.302903
     50          6           0       -0.918620   -3.590318   -1.602355
     51          1           0       -1.881225   -4.112244   -1.701915
     52          1           0       -0.616902   -3.327951   -2.624169
     53          6           0        3.830750    5.316223    3.502109
     54          1           0        4.656783    4.590916    3.587928
     55          6           0       -1.801357   -2.627418    0.574946
     56          1           0       -1.064995   -3.039062    1.274208
     57          1           0       -2.598671   -3.370881    0.457109
     58          1           0       -2.245911   -1.748051    1.047676
     59          6           0        0.110957   -4.575238   -1.023255
     60          1           0        1.088929   -4.084365   -0.947184
     61          1           0       -0.177218   -4.851475   -0.001836
     62          6           0        0.238090   -5.843437   -1.883544
     63          1           0        0.502504   -5.547227   -2.909147
     64          1           0       -0.750282   -6.320572   -1.952893
     65          6           0        1.257085   -6.904946   -1.407539
     66          1           0        1.199854   -7.725947   -2.137602
     67          6           0        0.898902   -7.496857   -0.034225
     68          1           0       -0.130161   -7.874857   -0.018599
     69          1           0        1.564590   -8.330624    0.216658
     70          1           0        0.993589   -6.751937    0.764288
     71          6           0        2.704933   -6.387045   -1.424984
     72          1           0        2.968453   -5.971808   -2.404935
     73          1           0        3.410988   -7.195851   -1.204556
     74          1           0        2.863297   -5.602810   -0.675703
 ---------------------------------------------------------------------

 SCF Done:  E(RHF) =  -1124.07855120     A.U. after    9 cycles

 Alpha  occ. eigenvalues --  -20.55354 -11.27431 -11.23896 -11.22701 -11.22646
 Alpha  occ. eigenvalues --  -11.22527 -11.22329 -11.22318 -11.22137 -11.22047
 Alpha  occ. eigenvalues --  -11.21990 -11.21951 -11.21924 -11.21913 -11.21557
 Alpha  occ. eigenvalues --  -11.21510 -11.21457 -11.21441 -11.21412 -11.21393
 Alpha  occ. eigenvalues --  -11.21360 -11.21338 -11.21336 -11.21173 -11.21061
 Alpha  occ. eigenvalues --  -11.21030 -11.20926 -11.20893  -1.34656  -1.15864
 Alpha  occ. eigenvalues --   -1.13449  -1.09579  -1.07960  -1.06069  -1.05533
 Alpha  occ. eigenvalues --   -1.02655  -1.01292  -0.99557  -0.97707  -0.95819
 Alpha  occ. eigenvalues --   -0.92703  -0.92406  -0.91941  -0.90927  -0.90683
 Alpha  occ. eigenvalues --   -0.85960  -0.84391  -0.82561  -0.81770  -0.78792
 Alpha  occ. eigenvalues --   -0.76611  -0.76195  -0.74673  -0.73052  -0.71480
 Alpha  occ. eigenvalues --   -0.68985  -0.66873  -0.65019  -0.64292  -0.63890
 Alpha  occ. eigenvalues --   -0.63221  -0.62477  -0.62112  -0.61162  -0.60471
 Alpha  occ. eigenvalues --   -0.59507  -0.58865  -0.58555  -0.58212  -0.57552
 Alpha  occ. eigenvalues --   -0.56534  -0.56319  -0.55633  -0.55133  -0.54693
 Alpha  occ. eigenvalues --   -0.54514  -0.53653  -0.53273  -0.52881  -0.52550
 Alpha  occ. eigenvalues --   -0.52359  -0.51998  -0.51639  -0.51271  -0.51101
 Alpha  occ. eigenvalues --   -0.50351  -0.50182  -0.48509  -0.48228  -0.48127
 Alpha  occ. eigenvalues --   -0.47223  -0.47075  -0.46724  -0.46264  -0.45329
 Alpha  occ. eigenvalues --   -0.45051  -0.44715  -0.44523  -0.44093  -0.43597
 Alpha  occ. eigenvalues --   -0.43382  -0.42986  -0.42767  -0.42404  -0.41557
 Alpha  occ. eigenvalues --   -0.39788  -0.38513  -0.32781
 Alpha virt. eigenvalues --    0.18180   0.20753   0.21909   0.22392   0.22527
 Alpha virt. eigenvalues --    0.23324   0.23906   0.24527   0.24624   0.25613
 Alpha virt. eigenvalues --    0.25969   0.26584   0.27242   0.27631   0.28278

 Mulliken charges:
               1
     1  O   -0.765593
     2  H    0.433031
     3  C   -0.027347
     4  C   -0.158004
     5  H    0.150736
     6  C   -0.153676
     7  H    0.163610
     8  C   -0.154817
     9  H    0.154963
    10  C   -0.140845
    11  H    0.156648
    12  C   -0.298232
    13  H    0.150914
    14  H    0.163609
    15  C   -0.038287
    16  C   -0.316447
    17  H    0.165412
    18  H    0.158387
    19  C   -0.327806
    20  H    0.163989
    21  H    0.165937
    22  C   -0.335176
    23  H    0.161001
    24  H    0.166427
    25  C   -0.324453
    26  H    0.170208
    27  H    0.161197
    28  C   -0.147563
    29  H    0.157014
    30  C   -0.489818
    31  H    0.162385
    32  H    0.165059
    33  H    0.163947
    34  C    0.063496
    35  C   -0.326286
    36  H    0.160340
    37  H    0.169530
    38  C   -0.235047
    39  H    0.171964
    40  C   -0.480314
    41  H    0.162483
    42  H    0.168566
    43  H    0.165309
    44  C   -0.370717
    45  H    0.159886
    46  H    0.179310
    47  C   -0.327102
    48  H    0.171496
    49  H    0.178741
    50  C   -0.309321
    51  H    0.152753
    52  H    0.160227
    53  C    0.194456
    54  H    0.144541
    55  C   -0.485986
    56  H    0.157035
    57  H    0.157466
    58  H    0.162315
    59  C   -0.321438
    60  H    0.158816
    61  H    0.160963
    62  C   -0.300090
    63  H    0.150871
    64  H    0.151447
    65  C   -0.146089
    66  H    0.155376
    67  C   -0.476218
    68  H    0.156993
    69  H    0.158266
    70  H    0.155712
    71  C   -0.476194
    72  H    0.156418
    73  H    0.158513
    74  H    0.155105
 Sum of Mulliken charges =   0.00000

 Dipole moment (field-independent basis, Debye):
    X=              0.4668    Y=             -0.9599    Z=             -1.4090  Tot=              1.7676
 Quadrupole moment (field-independent basis, Debye-Ang):
   XX=           -173.5729   YY=           -190.3934   ZZ=           -190.9562
   XY=              1.8152   XZ=             -4.3458   YZ=            -11.3918

 ESP charges:
               1
     1  O   -0.764473
     2  H    0.425552
     3  C    0.536162
     4  C    0.045033
     5  H   -0.031711
     6  C    0.107680
     7  H   -0.053982
     8  C   -0.069946
     9  H   -0.039089
    10  C   -0.033200
    11  H   -0.061330
    12  C   -0.168765
    13  H   -0.000785
    14  H    0.013696
    15  C    0.577056
    16  C   -0.191746
    17  H    0.025339
    18  H    0.022418
    19  C    0.026975
    20  H   -0.017467
    21  H    0.003230
    22  C    0.073845
    23  H   -0.018595
    24  H   -0.007385
    25  C    0.150212
    26  H   -0.013955
    27  H   -0.023697
    28  C    0.186985
    29  H   -0.021799
    30  C   -0.469759
    31  H    0.080170
    32  H    0.098581
    33  H    0.085540
    34  C   -0.237446
    35  C   -0.307902
    36  H    0.039625
    37  H    0.047607
    38  C   -0.318075
    39  H    0.143704
    40  C   -0.306682
    41  H    0.038825
    42  H    0.079072
    43  H    0.042843
    44  C    0.028093
    45  H   -0.003173
    46  H    0.000467
    47  C    0.087667
    48  H   -0.004866
    49  H    0.012541
    50  C   -0.166831
    51  H    0.032618
    52  H    0.006237
    53  C    0.426535
    54  H   -0.068478
    55  C   -0.352938
    56  H    0.064689
    57  H    0.083711
    58  H    0.077081
    59  C    0.226806
    60  H   -0.026623
    61  H   -0.031064
    62  C   -0.204404
    63  H    0.021935
    64  H    0.018891
    65  C    0.400895
    66  H   -0.073670
    67  C   -0.274825
    68  H    0.050460
    69  H    0.053645
    70  H    0.047309
    71  C   -0.277276
    72  H    0.050372
    73  H    0.054373
    74  H    0.047464
 Sum of ESP charges =   0.00000

 Normal termination of Gaussian 09 at Mon Mar 20 12:47:55 2017.
