 Gaussian 09, Revision D.01,
 Gaussian 09:  EM64L-G09RevD.01 24-Apr-2013

 ----------------------------------------------------------------------
 #P HF/6-31G* SCF(Conver=6) NoSymm Test Pop=mk IOp(6/33=2) GFInput GFPr
 int
 ----------------------------------------------------------------------

 ----------------------------------------------
 MEP - Input generated by R.E.D.-III.x MOLECULE
 ----------------------------------------------
 Symbolic Z-matrix:
 Charge =  0 Multiplicity = 1

                          Input orientation:
 ---------------------------------------------------------------------
 Center     Atomic      Atomic             Coordinates (Angstroms)
 Number     Number       Type             X           Y           Z
 ---------------------------------------------------------------------
      1          8           0        6.701701    0.899428    0.000000
      2          1           0        7.058541    0.000000    0.000000
      3          8           0        9.849360    0.369375   -6.414195
      4          1           0        9.982902   -0.587174   -6.471980
      5          6           0        2.442223    0.506644   -1.593492
      6          6           0        3.799532    1.141887   -1.171782
      7          1           0        3.766353    2.171476   -1.568932
      8          6           0        5.050205    0.503858   -1.802820
      9          1           0        5.139079   -0.540864   -1.470176
     10          6           0        4.929254    0.543957   -3.351643
     11          1           0        4.961995    1.611682   -3.624425
     12          6           0        1.452605    1.396464   -0.762263
     13          1           0        1.415408    2.369445   -1.278023
     14          6           0        2.350095    0.639356   -3.126894
     15          1           0        2.294818    1.706973   -3.384578
     16          1           0        1.439811    0.177755   -3.521875
     17          6           0        6.148168   -0.114700   -4.086782
     18          6           0        3.698926    1.264684    0.356352
     19          1           0        4.373286    2.023471    0.759894
     20          1           0        3.979505    0.322432    0.838836
     21          6           0        3.563138    0.004302   -3.832930
     22          1           0        3.522827   -1.081043   -3.690242
     23          1           0        3.461572    0.170418   -4.911135
     24          6           0        2.202819    1.599467    0.597866
     25          1           0        1.777754    0.945988    1.369268
     26          1           0        2.079875    2.624115    0.961716
     27          6           0        6.333706    1.229663   -1.354226
     28          1           0        6.133041    2.309379   -1.305141
     29          6           0       -0.018101    0.940708   -0.568872
     30          1           0        0.000000    0.000000    0.000000
     31          6           0        2.326083   -0.973545   -1.162739
     32          1           0        3.136265   -1.588583   -1.563263
     33          1           0        2.344942   -1.084792   -0.074581
     34          1           0        1.385844   -1.407592   -1.518549
     35          6           0        7.458944    0.366497   -3.454918
     36          6           0        6.132944    0.336964   -5.580864
     37          1           0        5.971884    1.423486   -5.609345
     38          1           0        5.276529   -0.117151   -6.090344
     39          6           0        7.503342    0.985763   -2.266172
     40          1           0        8.459711    1.336520   -1.878360
     41          6           0        6.096516   -1.664357   -4.012862
     42          1           0        5.268341   -2.064663   -4.605722
     43          1           0        7.014973   -2.116089   -4.396735
     44          1           0        5.975520   -2.008143   -2.981016
     45          6           0        8.735780    0.124790   -4.237908
     46          1           0        9.583580    0.602301   -3.736967
     47          1           0        8.954226   -0.955018   -4.269027
     48          6           0        7.413370    0.019032   -6.368460
     49          1           0        7.549923   -1.068951   -6.458289
     50          1           0        7.331444    0.409714   -7.389095
     51          6           0       -0.781916    1.991855    0.277146
     52          1           0       -0.217808    2.192535    1.193921
     53          1           0       -0.789422    2.939782   -0.281552
     54          6           0        8.642925    0.620538   -5.688583
     55          1           0        8.554078    1.713768   -5.686404
     56          6           0       -0.756433    0.678906   -1.892839
     57          1           0       -0.741084    1.568979   -2.534666
     58          1           0       -1.804131    0.416494   -1.718069
     59          1           0       -0.313520   -0.145549   -2.455646
     60          6           0       -2.235723    1.653260    0.663970
     61          1           0       -2.637616    2.502833    1.230745
     62          1           0       -2.857160    1.591210   -0.237747
     63          6           0       -2.436598    0.358652    1.474539
     64          1           0       -2.127807   -0.501575    0.865071
     65          1           0       -3.514536    0.226429    1.650516
     66          6           0       -1.713399    0.274953    2.835537
     67          1           0       -0.634606    0.396138    2.660878
     68          6           0       -1.924520   -1.111815    3.464311
     69          1           0       -2.988114   -1.290697    3.668279
     70          1           0       -1.384288   -1.205612    4.413301
     71          1           0       -1.575146   -1.909933    2.799066
     72          6           0       -2.158742    1.379929    3.806741
     73          1           0       -3.238319    1.318900    3.996792
     74          1           0       -1.646307    1.283264    4.770656
     75          1           0       -1.944764    2.381437    3.419888
 ---------------------------------------------------------------------

 SCF Done:  E(RHF) =  -1198.92599862     A.U. after    9 cycles

 Alpha  occ. eigenvalues --  -20.55905 -20.55578 -11.28029 -11.27898 -11.24893
 Alpha  occ. eigenvalues --  -11.24105 -11.23191 -11.22930 -11.22906 -11.22763
 Alpha  occ. eigenvalues --  -11.22578 -11.22527 -11.22379 -11.22279 -11.22266
 Alpha  occ. eigenvalues --  -11.22257 -11.21979 -11.21950 -11.21682 -11.21584
 Alpha  occ. eigenvalues --  -11.21486 -11.21412 -11.21281 -11.21062 -11.21014
 Alpha  occ. eigenvalues --  -11.20995 -11.20963 -11.20843 -11.20451  -1.35278
 Alpha  occ. eigenvalues --   -1.34766  -1.16071  -1.13874  -1.09729  -1.08042
 Alpha  occ. eigenvalues --   -1.05911  -1.05640  -1.03071  -1.01687  -0.99371
 Alpha  occ. eigenvalues --   -0.97938  -0.96235  -0.92909  -0.92390  -0.92289
 Alpha  occ. eigenvalues --   -0.91176  -0.90583  -0.86191  -0.84362  -0.82828
 Alpha  occ. eigenvalues --   -0.82655  -0.79008  -0.78425  -0.77043  -0.75111
 Alpha  occ. eigenvalues --   -0.73179  -0.72152  -0.69951  -0.67260  -0.66518
 Alpha  occ. eigenvalues --   -0.64620  -0.64082  -0.64000  -0.63279  -0.63124
 Alpha  occ. eigenvalues --   -0.62048  -0.61040  -0.60685  -0.60275  -0.58856
 Alpha  occ. eigenvalues --   -0.58658  -0.58533  -0.57624  -0.57174  -0.56130
 Alpha  occ. eigenvalues --   -0.56072  -0.55897  -0.55575  -0.54857  -0.54524
 Alpha  occ. eigenvalues --   -0.54144  -0.53467  -0.53219  -0.53030  -0.52780
 Alpha  occ. eigenvalues --   -0.52316  -0.51933  -0.51288  -0.50828  -0.49714
 Alpha  occ. eigenvalues --   -0.48845  -0.48448  -0.48020  -0.47977  -0.47426
 Alpha  occ. eigenvalues --   -0.46957  -0.46739  -0.46288  -0.46051  -0.45400
 Alpha  occ. eigenvalues --   -0.45060  -0.44750  -0.44046  -0.43739  -0.43417
 Alpha  occ. eigenvalues --   -0.43027  -0.42516  -0.42415  -0.41568  -0.40389
 Alpha  occ. eigenvalues --   -0.38487  -0.34023
 Alpha virt. eigenvalues --    0.16196   0.20371   0.21100   0.21758   0.22388
 Alpha virt. eigenvalues --    0.23145   0.23325   0.24609   0.24977   0.25502
 Alpha virt. eigenvalues --    0.25993   0.26191   0.26738   0.27202   0.27454

 Mulliken charges:
               1
     1  O   -0.763797
     2  H    0.429056
     3  O   -0.758979
     4  H    0.428117
     5  C   -0.029376
     6  C   -0.167947
     7  H    0.150285
     8  C   -0.166996
     9  H    0.154435
    10  C   -0.167052
    11  H    0.159374
    12  C   -0.134508
    13  H    0.151765
    14  C   -0.298023
    15  H    0.152488
    16  H    0.164728
    17  C   -0.040552
    18  C   -0.298193
    19  H    0.183393
    20  H    0.159615
    21  C   -0.327519
    22  H    0.163594
    23  H    0.166937
    24  C   -0.343683
    25  H    0.160240
    26  H    0.166990
    27  C    0.184156
    28  H    0.176718
    29  C   -0.154031
    30  H    0.156368
    31  C   -0.487539
    32  H    0.159603
    33  H    0.167347
    34  H    0.162186
    35  C    0.074490
    36  C   -0.326089
    37  H    0.166503
    38  H    0.172993
    39  C   -0.290756
    40  H    0.193983
    41  C   -0.477616
    42  H    0.167237
    43  H    0.162562
    44  H    0.164595
    45  C   -0.365987
    46  H    0.193913
    47  H    0.152378
    48  C   -0.340789
    49  H    0.144083
    50  H    0.183676
    51  C   -0.313828
    52  H    0.169795
    53  H    0.150601
    54  C    0.193754
    55  H    0.174230
    56  C   -0.485524
    57  H    0.152693
    58  H    0.164410
    59  H    0.160820
    60  C   -0.317593
    61  H    0.159507
    62  H    0.158480
    63  C   -0.302620
    64  H    0.154695
    65  H    0.150942
    66  C   -0.154860
    67  H    0.157977
    68  C   -0.471437
    69  H    0.152513
    70  H    0.158340
    71  H    0.156431
    72  C   -0.476780
    73  H    0.151923
    74  H    0.158678
    75  H    0.162473
 Sum of Mulliken charges =   0.00000

 Dipole moment (field-independent basis, Debye):
    X=             -1.0889    Y=             -2.2361    Z=             -0.9773  Tot=              2.6722
 Quadrupole moment (field-independent basis, Debye-Ang):
   XX=           -206.9649   YY=           -184.3425   ZZ=           -190.9541
   XY=            -21.2047   XZ=              3.9762   YZ=              7.5806

 ESP charges:
               1
     1  O   -0.787851
     2  H    0.447759
     3  O   -0.738269
     4  H    0.424475
     5  C    0.539097
     6  C    0.331247
     7  H   -0.045512
     8  C   -0.594591
     9  H    0.141367
    10  C   -0.105099
    11  H    0.051287
    12  C   -0.277612
    13  H    0.019363
    14  C   -0.193070
    15  H    0.016169
    16  H    0.037013
    17  C    0.188485
    18  C   -0.288897
    19  H    0.099836
    20  H    0.061521
    21  C    0.044161
    22  H    0.013000
    23  H   -0.002574
    24  C   -0.073250
    25  H    0.046421
    26  H    0.037601
    27  C    0.775970
    28  H   -0.003861
    29  C    0.434629
    30  H   -0.048394
    31  C   -0.582531
    32  H    0.130454
    33  H    0.124193
    34  H    0.114839
    35  C    0.226042
    36  C   -0.088535
    37  H    0.031044
    38  H    0.086107
    39  C   -0.648478
    40  H    0.206992
    41  C   -0.286457
    42  H    0.068587
    43  H    0.072377
    44  H    0.079340
    45  C   -0.495041
    46  H    0.151723
    47  H    0.136782
    48  C   -0.389336
    49  H    0.103491
    50  H    0.111774
    51  C   -0.048783
    52  H   -0.007540
    53  H    0.009853
    54  C    0.519075
    55  H    0.054404
    56  C   -0.523470
    57  H    0.097936
    58  H    0.125785
    59  H    0.107952
    60  C   -0.100462
    61  H    0.027943
    62  H    0.034501
    63  C   -0.148609
    64  H    0.010021
    65  H    0.028698
    66  C    0.563934
    67  H   -0.100414
    68  C   -0.485740
    69  H    0.098154
    70  H    0.107590
    71  H    0.092793
    72  C   -0.447532
    73  H    0.091875
    74  H    0.089031
    75  H    0.099218
 Sum of ESP charges =   0.00000

 Normal termination of Gaussian 09 at Thu May 18 13:48:55 2017.
