 Gaussian 09, Revision D.01,
 Gaussian 09:  EM64L-G09RevD.01 24-Apr-2013

 ----------------------------------------------------------------------
 #P HF/6-31G* SCF(Conver=6) NoSymm Test Pop=mk IOp(6/33=2) GFInput GFPr
 int
 ----------------------------------------------------------------------

 ----------------------------------------------
 MEP - Input generated by R.E.D.-III.x MOLECULE
 ----------------------------------------------
 Symbolic Z-matrix:
 Charge =  0 Multiplicity = 1

                          Input orientation:
 ---------------------------------------------------------------------
 Center     Atomic      Atomic             Coordinates (Angstroms)
 Number     Number       Type             X           Y           Z
 ---------------------------------------------------------------------
      1          8           0        0.000000    0.000000    0.000000
      2          1           0        0.967632    0.000000    0.000000
      3          8           0        1.643425   -2.743155    6.411508
      4          1           0        2.582142   -2.516122    6.470073
      5          6           0       -1.194735    4.105365    1.597971
      6          6           0       -1.287974    2.610551    1.173319
      7          1           0       -2.259184    2.263718    1.567500
      8          6           0       -0.237801    1.679153    1.804999
      9          1           0        0.767610    1.979097    1.474597
     10          6           0       -0.321853    1.774814    3.353937
     11          1           0       -1.303735    1.352638    3.624505
     12          6           0       -2.383284    4.702556    0.765545
     13          1           0       -3.303500    4.382811    1.280325
     14          6           0       -1.355346    4.139987    3.130971
     15          1           0       -2.369416    3.799402    3.385755
     16          1           0       -1.260689    5.155550    3.527700
     17          6           0        0.736575    0.880753    4.089245
     18          6           0       -1.435668    2.662562   -0.355049
     19          1           0       -1.891467    1.757046   -0.762001
     20          1           0       -0.455191    2.750494   -0.834980
     21          6           0       -0.321336    3.242858    3.837649
     22          1           0        0.673979    3.678482    3.697889
     23          1           0       -0.515290    3.274376    4.915537
     24          6           0       -2.297663    3.930624   -0.595140
     25          1           0       -1.848960    4.566814   -1.367701
     26          1           0       -3.296179    3.666831   -0.956877
     27          6           0       -0.442732    0.219646    1.354263
     28          1           0       -1.520863    0.010815    1.304379
     29          6           0       -2.492949    6.237871    0.573147
     30          1           0       -1.612900    6.568107    0.000000
     31          6           0        0.141148    4.755688    1.170603
     32          1           0        1.009163    4.226127    1.571996
     33          1           0        0.253267    4.780183    0.082676
     34          1           0        0.200828    5.789116    1.527590
     35          6           0        0.770853   -0.513969    3.454964
     36          6           0        0.308300    0.726338    5.582302
     37          1           0       -0.761385    0.476659    5.608482
     38          1           0        0.414881    1.688876    6.093626
     39          6           0        0.212458   -0.780499    2.265145
     40          1           0        0.237757   -1.798137    1.875468
     41          6           0        2.159417    1.497232    4.019261
     42          1           0        2.226257    2.414299    4.612628
     43          1           0        2.915255    0.808219    4.405062
     44          1           0        2.437755    1.736185    2.988265
     45          6           0        1.464050   -1.613955    4.236885
     46          1           0        1.332207   -2.577081    3.734164
     47          1           0        2.548498   -1.420116    4.269490
     48          6           0        1.073254   -0.348968    6.369407
     49          1           0        2.135041   -0.076126    6.461835
     50          1           0        0.677853   -0.418299    7.389156
     51          6           0       -3.743189    6.580718   -0.275460
     52          1           0       -3.761430    5.942170   -1.166336
     53          1           0       -4.638919    6.317325    0.305674
     54          6           0        0.967104   -1.712367    5.686832
     55          1           0       -0.082179   -2.031824    5.682733
     56          6           0       -2.516964    7.020505    1.897998
     57          1           0       -3.334397    6.674240    2.543221
     58          1           0       -2.663725    8.090384    1.722770
     59          1           0       -1.584595    6.915779    2.457019
     60          6           0       -3.832630    8.042105   -0.747395
     61          1           0       -3.970899    8.715801    0.106033
     62          1           0       -2.870396    8.323536   -1.198496
     63          6           0       -4.937698    8.300432   -1.788413
     64          1           0       -4.740321    7.673928   -2.670314
     65          1           0       -4.859238    9.342305   -2.133091
     66          6           0       -6.391451    8.053085   -1.331953
     67          1           0       -6.475979    7.006814   -1.004888
     68          6           0       -7.357552    8.245705   -2.511898
     69          1           0       -7.321868    9.278518   -2.881969
     70          1           0       -8.392101    8.033910   -2.218452
     71          1           0       -7.103898    7.584068   -3.348139
     72          6           0       -6.796825    8.950292   -0.151719
     73          1           0       -6.705664   10.011066   -0.419686
     74          1           0       -7.838529    8.769716    0.137098
     75          1           0       -6.175580    8.775694    0.732735
 ---------------------------------------------------------------------

 SCF Done:  E(RHF) =  -1198.92754041     A.U. after    9 cycles

 Alpha  occ. eigenvalues --  -20.55903 -20.55575 -11.28028 -11.27895 -11.24888
 Alpha  occ. eigenvalues --  -11.24099 -11.23190 -11.22928 -11.22903 -11.22759
 Alpha  occ. eigenvalues --  -11.22575 -11.22524 -11.22323 -11.22310 -11.22273
 Alpha  occ. eigenvalues --  -11.22253 -11.21976 -11.21941 -11.21676 -11.21581
 Alpha  occ. eigenvalues --  -11.21480 -11.21424 -11.21246 -11.21039 -11.20973
 Alpha  occ. eigenvalues --  -11.20970 -11.20948 -11.20854 -11.20438  -1.35276
 Alpha  occ. eigenvalues --   -1.34764  -1.16066  -1.13866  -1.09669  -1.08096
 Alpha  occ. eigenvalues --   -1.05924  -1.05704  -1.03063  -1.01699  -0.99516
 Alpha  occ. eigenvalues --   -0.97932  -0.96245  -0.92872  -0.92327  -0.92292
 Alpha  occ. eigenvalues --   -0.90938  -0.90584  -0.86186  -0.84026  -0.82816
 Alpha  occ. eigenvalues --   -0.82469  -0.79176  -0.78541  -0.77033  -0.74941
 Alpha  occ. eigenvalues --   -0.73977  -0.72083  -0.69942  -0.67254  -0.66473
 Alpha  occ. eigenvalues --   -0.64818  -0.64092  -0.63949  -0.63459  -0.62469
 Alpha  occ. eigenvalues --   -0.61561  -0.61309  -0.60760  -0.60418  -0.59193
 Alpha  occ. eigenvalues --   -0.58733  -0.58144  -0.57675  -0.56905  -0.56336
 Alpha  occ. eigenvalues --   -0.56183  -0.55854  -0.55264  -0.54823  -0.54288
 Alpha  occ. eigenvalues --   -0.54106  -0.53851  -0.53166  -0.53014  -0.52887
 Alpha  occ. eigenvalues --   -0.52483  -0.52157  -0.51006  -0.50177  -0.49819
 Alpha  occ. eigenvalues --   -0.49107  -0.48424  -0.48106  -0.47762  -0.47398
 Alpha  occ. eigenvalues --   -0.47002  -0.46673  -0.46165  -0.45900  -0.45446
 Alpha  occ. eigenvalues --   -0.45068  -0.44726  -0.44374  -0.43506  -0.43407
 Alpha  occ. eigenvalues --   -0.43271  -0.42540  -0.42507  -0.41612  -0.40383
 Alpha  occ. eigenvalues --   -0.38462  -0.34019
 Alpha virt. eigenvalues --    0.16202   0.20909   0.21250   0.22057   0.22319
 Alpha virt. eigenvalues --    0.22958   0.24132   0.24615   0.24926   0.25752
 Alpha virt. eigenvalues --    0.25882   0.26152   0.26866   0.26955   0.27542

 Mulliken charges:
               1
     1  O   -0.763764
     2  H    0.429046
     3  O   -0.758979
     4  H    0.428112
     5  C   -0.029834
     6  C   -0.167672
     7  H    0.150103
     8  C   -0.167141
     9  H    0.154383
    10  C   -0.166978
    11  H    0.159325
    12  C   -0.135429
    13  H    0.151480
    14  C   -0.297967
    15  H    0.152344
    16  H    0.164800
    17  C   -0.040689
    18  C   -0.298299
    19  H    0.183430
    20  H    0.159319
    21  C   -0.327540
    22  H    0.163650
    23  H    0.166890
    24  C   -0.339927
    25  H    0.158300
    26  H    0.166391
    27  C    0.184175
    28  H    0.176688
    29  C   -0.148797
    30  H    0.152182
    31  C   -0.487518
    32  H    0.159443
    33  H    0.167589
    34  H    0.162593
    35  C    0.074514
    36  C   -0.326078
    37  H    0.166485
    38  H    0.172978
    39  C   -0.290643
    40  H    0.193976
    41  C   -0.477564
    42  H    0.167261
    43  H    0.162529
    44  H    0.164602
    45  C   -0.366023
    46  H    0.193903
    47  H    0.152397
    48  C   -0.340753
    49  H    0.144102
    50  H    0.183663
    51  C   -0.311889
    52  H    0.166442
    53  H    0.150899
    54  C    0.193749
    55  H    0.174226
    56  C   -0.485711
    57  H    0.152189
    58  H    0.164456
    59  H    0.161151
    60  C   -0.312925
    61  H    0.158328
    62  H    0.154146
    63  C   -0.298419
    64  H    0.151863
    65  H    0.150471
    66  C   -0.151852
    67  H    0.157304
    68  C   -0.471920
    69  H    0.152047
    70  H    0.157911
    71  H    0.157982
    72  C   -0.476750
    73  H    0.151792
    74  H    0.158178
    75  H    0.161271
 Sum of Mulliken charges =   0.00000

 Dipole moment (field-independent basis, Debye):
    X=              1.7637    Y=              1.8306    Z=              0.9455  Tot=              2.7121
 Quadrupole moment (field-independent basis, Debye-Ang):
   XX=           -179.1365   YY=           -194.4394   ZZ=           -190.9092
   XY=              1.6831   XZ=              3.5155   YZ=             12.3806

 ESP charges:
               1
     1  O   -0.781219
     2  H    0.446382
     3  O   -0.739431
     4  H    0.420741
     5  C    0.641987
     6  C    0.220430
     7  H   -0.039172
     8  C   -0.487535
     9  H    0.120947
    10  C   -0.121306
    11  H    0.046731
    12  C   -0.177817
    13  H    0.001898
    14  C   -0.214919
    15  H    0.018593
    16  H    0.033112
    17  C    0.201887
    18  C   -0.281227
    19  H    0.102410
    20  H    0.058446
    21  C    0.043572
    22  H    0.011020
    23  H    0.000432
    24  C   -0.063454
    25  H    0.036617
    26  H    0.033134
    27  C    0.733706
    28  H    0.005382
    29  C    0.143379
    30  H    0.001591
    31  C   -0.622185
    32  H    0.132792
    33  H    0.135264
    34  H    0.123222
    35  C    0.212544
    36  C   -0.073238
    37  H    0.024529
    38  H    0.078475
    39  C   -0.650065
    40  H    0.211601
    41  C   -0.286829
    42  H    0.066955
    43  H    0.069207
    44  H    0.076888
    45  C   -0.456523
    46  H    0.138645
    47  H    0.125506
    48  C   -0.377347
    49  H    0.097220
    50  H    0.105604
    51  C    0.026125
    52  H   -0.010138
    53  H    0.020522
    54  C    0.527902
    55  H    0.045734
    56  C   -0.423022
    57  H    0.089401
    58  H    0.093369
    59  H    0.101051
    60  C   -0.025627
    61  H    0.028051
    62  H    0.018664
    63  C   -0.271925
    64  H    0.059497
    65  H    0.056634
    66  C    0.533394
    67  H   -0.079466
    68  C   -0.492137
    69  H    0.105588
    70  H    0.112858
    71  H    0.096831
    72  C   -0.451983
    73  H    0.100374
    74  H    0.092584
    75  H    0.097137
 Sum of ESP charges =   0.00000

 Normal termination of Gaussian 09 at Thu May 18 13:51:43 2017.
