 Gaussian 09, Revision D.01,
 Gaussian 09:  EM64L-G09RevD.01 24-Apr-2013

 ----------------------------------------------------------------------
 #P HF/6-31G* SCF(Conver=6) NoSymm Test Pop=mk IOp(6/33=2) GFInput GFPr
 int
 ----------------------------------------------------------------------

 ----------------------------------------------
 MEP - Input generated by R.E.D.-III.x MOLECULE
 ----------------------------------------------
 Symbolic Z-matrix:
 Charge =  0 Multiplicity = 1

                          Input orientation:
 ---------------------------------------------------------------------
 Center     Atomic      Atomic             Coordinates (Angstroms)
 Number     Number       Type             X           Y           Z
 ---------------------------------------------------------------------
      1          8           0        6.100519    3.757893    0.000000
      2          1           0        5.833885    3.766599   -0.930132
      3          8           0        0.000000    0.000000    0.000000
      4          1           0       -0.109046   -0.168917   -0.946433
      5          6           0        8.824436    0.121379    0.428419
      6          6           0        7.895734    1.313028    0.801810
      7          1           0        7.675978    1.175365    1.874871
      8          6           0        6.523617    1.319920    0.104619
      9          1           0        6.662276    1.432435   -0.980716
     10          6           0        5.784415   -0.016331    0.395428
     11          1           0        5.570050   -0.007057    1.476881
     12          6           0       10.077992    0.470368    1.303716
     13          1           0        9.789132    0.238053    2.339539
     14          6           0        8.069393   -1.166726    0.810105
     15          1           0        7.943192   -1.190317    1.902251
     16          1           0        8.637054   -2.063992    0.543572
     17          6           0        4.386303   -0.116046   -0.308674
     18          6           0        8.806057    2.548172    0.701400
     19          1           0        8.442251    3.383395    1.304336
     20          1           0        8.848011    2.914924   -0.329601
     21          6           0        6.687609   -1.243447    0.133008
     22          1           0        6.832878   -1.373157   -0.944929
     23          1           0        6.182218   -2.151500    0.480075
     24          6           0       10.191074    2.024150    1.169237
     25          1           0       10.969710    2.287958    0.443567
     26          1           0       10.492356    2.477659    2.118936
     27          6           0        5.663945    2.509749    0.574099
     28          1           0        5.821393    2.658805    1.651827
     29          6           0       11.422898   -0.247878    1.029303
     30          1           0       11.721021    0.000000    0.000000
     31          6           0        9.198532    0.111798   -1.071391
     32          1           0        8.319024    0.077187   -1.719649
     33          1           0        9.772985    0.998511   -1.355254
     34          1           0        9.810299   -0.764300   -1.311463
     35          6           0        3.610971    1.191462   -0.112573
     36          6           0        3.573043   -1.269858    0.357405
     37          1           0        3.653520   -1.161799    1.447894
     38          1           0        4.032304   -2.231684    0.106161
     39          6           0        4.196104    2.321629    0.310484
     40          1           0        3.590961    3.215055    0.464363
     41          6           0        4.526072   -0.391525   -1.829900
     42          1           0        4.915322   -1.396648   -2.019201
     43          1           0        3.563104   -0.317526   -2.341890
     44          1           0        5.198730    0.330148   -2.303452
     45          6           0        2.123310    1.166370   -0.409140
     46          1           0        1.665669    2.121314   -0.132810
     47          1           0        1.962120    1.040154   -1.492082
     48          6           0        2.082652   -1.312022   -0.013744
     49          1           0        1.958626   -1.531748   -1.084618
     50          1           0        1.584067   -2.121237    0.531804
     51          6           0       12.568157    0.289153    1.931058
     52          1           0       13.498016   -0.203991    1.611820
     53          1           0       12.712352    1.356016    1.727217
     54          6           0        1.397173    0.016434    0.304521
     55          1           0        1.433606    0.189690    1.386971
     56          6           0       11.341618   -1.783483    1.121312
     57          1           0       10.885079   -2.115879    2.060170
     58          1           0       12.344463   -2.223519    1.066234
     59          1           0       10.755864   -2.211059    0.303584
     60          6           0       12.402905    0.075256    3.445478
     61          1           0       11.539031    0.641987    3.814273
     62          1           0       12.174235   -0.979699    3.642075
     63          6           0       13.653014    0.439964    4.269097
     64          1           0       14.492833   -0.175272    3.914705
     65          1           0       13.482850    0.145363    5.315427
     66          6           0       14.093215    1.919469    4.254358
     67          1           0       14.262671    2.219736    3.210479
     68          6           0       15.426520    2.082735    5.001800
     69          1           0       15.321061    1.797165    6.056461
     70          1           0       15.775004    3.121465    4.972649
     71          1           0       16.209894    1.453508    4.563810
     72          6           0       13.026714    2.853788    4.847514
     73          1           0       12.808562    2.583190    5.888938
     74          1           0       13.369804    3.894612    4.840131
     75          1           0       12.085839    2.814442    4.289338
 ---------------------------------------------------------------------

 SCF Done:  E(RHF) =  -1198.92678310     A.U. after    9 cycles

 Alpha  occ. eigenvalues --  -20.55905 -20.55580 -11.28029 -11.27899 -11.24896
 Alpha  occ. eigenvalues --  -11.24104 -11.23205 -11.22930 -11.22906 -11.22734
 Alpha  occ. eigenvalues --  -11.22578 -11.22530 -11.22308 -11.22278 -11.22275
 Alpha  occ. eigenvalues --  -11.22257 -11.21985 -11.21850 -11.21683 -11.21587
 Alpha  occ. eigenvalues --  -11.21433 -11.21360 -11.21277 -11.21052 -11.21008
 Alpha  occ. eigenvalues --  -11.20917 -11.20907 -11.20899 -11.20486  -1.35278
 Alpha  occ. eigenvalues --   -1.34770  -1.16078  -1.13891  -1.09615  -1.08046
 Alpha  occ. eigenvalues --   -1.05919  -1.05653  -1.03070  -1.01648  -0.99473
 Alpha  occ. eigenvalues --   -0.97910  -0.96274  -0.92879  -0.92301  -0.92244
 Alpha  occ. eigenvalues --   -0.90947  -0.90633  -0.86191  -0.84077  -0.82879
 Alpha  occ. eigenvalues --   -0.82813  -0.79209  -0.78546  -0.77011  -0.75417
 Alpha  occ. eigenvalues --   -0.73275  -0.71420  -0.69967  -0.67285  -0.66483
 Alpha  occ. eigenvalues --   -0.64650  -0.63958  -0.63855  -0.63297  -0.63113
 Alpha  occ. eigenvalues --   -0.62037  -0.61124  -0.60691  -0.60614  -0.58825
 Alpha  occ. eigenvalues --   -0.58750  -0.58220  -0.57627  -0.56573  -0.56274
 Alpha  occ. eigenvalues --   -0.56023  -0.55937  -0.55419  -0.54842  -0.54355
 Alpha  occ. eigenvalues --   -0.54039  -0.53605  -0.53198  -0.53104  -0.52959
 Alpha  occ. eigenvalues --   -0.52725  -0.52140  -0.50976  -0.50771  -0.50249
 Alpha  occ. eigenvalues --   -0.48639  -0.48446  -0.48050  -0.47947  -0.47572
 Alpha  occ. eigenvalues --   -0.46955  -0.46485  -0.46280  -0.45936  -0.45216
 Alpha  occ. eigenvalues --   -0.45104  -0.44746  -0.43830  -0.43748  -0.43465
 Alpha  occ. eigenvalues --   -0.42965  -0.42550  -0.42251  -0.41692  -0.40393
 Alpha  occ. eigenvalues --   -0.38541  -0.34022
 Alpha virt. eigenvalues --    0.16195   0.20308   0.20980   0.22110   0.22221
 Alpha virt. eigenvalues --    0.23054   0.23956   0.24091   0.24781   0.25291
 Alpha virt. eigenvalues --    0.25810   0.26328   0.26717   0.27096   0.27460

 Mulliken charges:
               1
     1  O   -0.763740
     2  H    0.429044
     3  O   -0.758987
     4  H    0.428115
     5  C   -0.028728
     6  C   -0.167109
     7  H    0.149940
     8  C   -0.167287
     9  H    0.154427
    10  C   -0.167104
    11  H    0.159374
    12  C   -0.141339
    13  H    0.157018
    14  C   -0.297900
    15  H    0.152190
    16  H    0.164895
    17  C   -0.040579
    18  C   -0.298264
    19  H    0.182843
    20  H    0.160140
    21  C   -0.327726
    22  H    0.163691
    23  H    0.167010
    24  C   -0.343109
    25  H    0.159048
    26  H    0.167820
    27  C    0.184445
    28  H    0.176646
    29  C   -0.147096
    30  H    0.156355
    31  C   -0.488491
    32  H    0.159878
    33  H    0.167557
    34  H    0.162263
    35  C    0.074450
    36  C   -0.326154
    37  H    0.166505
    38  H    0.173064
    39  C   -0.290765
    40  H    0.193999
    41  C   -0.477563
    42  H    0.167186
    43  H    0.162563
    44  H    0.164673
    45  C   -0.365966
    46  H    0.193925
    47  H    0.152402
    48  C   -0.340809
    49  H    0.144085
    50  H    0.183682
    51  C   -0.313248
    52  H    0.151206
    53  H    0.166168
    54  C    0.193748
    55  H    0.174228
    56  C   -0.486803
    57  H    0.157181
    58  H    0.157668
    59  H    0.160776
    60  C   -0.318612
    61  H    0.157896
    62  H    0.160108
    63  C   -0.297562
    64  H    0.150967
    65  H    0.150301
    66  C   -0.152316
    67  H    0.156999
    68  C   -0.471756
    69  H    0.151995
    70  H    0.158098
    71  H    0.157391
    72  C   -0.479342
    73  H    0.151715
    74  H    0.158894
    75  H    0.163783
 Sum of Mulliken charges =   0.00000

 Dipole moment (field-independent basis, Debye):
    X=              0.5031    Y=             -1.8578    Z=             -2.0692  Tot=              2.8260
 Quadrupole moment (field-independent basis, Debye-Ang):
   XX=           -195.4841   YY=           -193.9132   ZZ=           -182.0638
   XY=            -11.6903   XZ=             -5.7592   YZ=             -3.4012

 ESP charges:
               1
     1  O   -0.787298
     2  H    0.447203
     3  O   -0.734309
     4  H    0.419813
     5  C    0.564328
     6  C    0.171990
     7  H   -0.027229
     8  C   -0.488123
     9  H    0.140768
    10  C   -0.231767
    11  H    0.085263
    12  C    0.133921
    13  H   -0.078494
    14  C   -0.278827
    15  H    0.028013
    16  H    0.043897
    17  C    0.150161
    18  C   -0.300783
    19  H    0.109483
    20  H    0.070832
    21  C    0.166076
    22  H   -0.008330
    23  H   -0.016259
    24  C   -0.109344
    25  H    0.033808
    26  H    0.034680
    27  C    0.771591
    28  H    0.008210
    29  C    0.158134
    30  H   -0.020357
    31  C   -0.624903
    32  H    0.140825
    33  H    0.127725
    34  H    0.126392
    35  C    0.266567
    36  C   -0.060665
    37  H    0.024461
    38  H    0.075136
    39  C   -0.697214
    40  H    0.221249
    41  C   -0.341196
    42  H    0.089953
    43  H    0.084867
    44  H    0.095684
    45  C   -0.450671
    46  H    0.136610
    47  H    0.124274
    48  C   -0.339311
    49  H    0.091390
    50  H    0.093919
    51  C   -0.180162
    52  H    0.049892
    53  H    0.019325
    54  C    0.501354
    55  H    0.051020
    56  C   -0.392915
    57  H    0.071697
    58  H    0.101647
    59  H    0.080768
    60  C    0.098733
    61  H    0.001332
    62  H    0.022742
    63  C   -0.364245
    64  H    0.080635
    65  H    0.069716
    66  C    0.540097
    67  H   -0.062193
    68  C   -0.480055
    69  H    0.109634
    70  H    0.105465
    71  H    0.092521
    72  C   -0.461627
    73  H    0.103924
    74  H    0.093078
    75  H    0.105472
 Sum of ESP charges =   0.00000

 Normal termination of Gaussian 09 at Thu May 18 13:35:10 2017.
