 Gaussian 09, Revision D.01,
 Gaussian 09:  EM64L-G09RevD.01 24-Apr-2013

 ----------------------------------------------------------------------
 #P HF/6-31G* SCF(Conver=6) NoSymm Test Pop=mk IOp(6/33=2) GFInput GFPr
 int
 ----------------------------------------------------------------------

 ----------------------------------------------
 MEP - Input generated by R.E.D.-III.x MOLECULE
 ----------------------------------------------
 Symbolic Z-matrix:
 Charge =  0 Multiplicity = 1

                          Input orientation:
 ---------------------------------------------------------------------
 Center     Atomic      Atomic             Coordinates (Angstroms)
 Number     Number       Type             X           Y           Z
 ---------------------------------------------------------------------
      1          8           0        0.000000    0.000000    0.000000
      2          1           0       -0.229623    0.136988    0.929950
      3          8           0       -3.054219    6.480617    0.000000
      4          1           0       -3.055410    6.680773    0.946621
      5          6           0        4.271949    1.553628   -0.415237
      6          6           0        2.842363    1.067529   -0.793827
      7          1           0        2.736330    1.305683   -1.866665
      8          6           0        1.687937    1.810057   -0.097039
      9          1           0        1.739903    1.637044    0.988020
     10          6           0        1.800911    3.333542   -0.382731
     11          1           0        1.623079    3.446648   -1.464923
     12          6           0        5.135258    0.580869   -1.292981
     13          1           0        5.044048    0.946312   -2.328414
     14          6           0        4.343733    3.047978   -0.787904
     15          1           0        4.253365    3.142497   -1.879769
     16          1           0        5.307867    3.489406   -0.517247
     17          6           0        0.681547    4.180516    0.317452
     18          6           0        2.928372   -0.463412   -0.697270
     19          1           0        2.157521   -0.963389   -1.288136
     20          1           0        2.780175   -0.794033    0.336233
     21          6           0        3.226875    3.863603   -0.109283
     22          1           0        3.413972    3.883219    0.969842
     23          1           0        3.303417    4.903026   -0.447283
     24          6           0        4.365314   -0.779867   -1.191059
     25          1           0        4.876666   -1.456928   -0.496034
     26          1           0        4.346468   -1.290333   -2.158764
     27          6           0        0.318873    1.284610   -0.571269
     28          1           0        0.372183    1.075283   -1.649146
     29          6           0        6.652631    0.430187   -1.007324
     30          1           0        6.762634    0.000000    0.000000
     31          6           0        4.584964    1.345740    1.084518
     32          1           0        3.861959    1.846326    1.733921
     33          1           0        4.584822    0.286622    1.358461
     34          1           0        5.573129    1.746316    1.333380
     35          6           0       -0.681578    3.509450    0.116649
     36          6           0        0.632783    5.590944   -0.349406
     37          1           0        0.643515    5.455683   -1.439772
     38          1           0        1.542647    6.145408   -0.096554
     39          6           0       -0.808096    2.244110   -0.309281
     40          1           0       -1.802724    1.826999   -0.466818
     41          6           0        0.943996    4.335220    1.839546
     42          1           0        1.818385    4.964648    2.031547
     43          1           0        0.095344    4.799192    2.348907
     44          1           0        1.112003    3.363313    2.313593
     45          6           0       -1.914556    4.343114    0.410701
     46          1           0       -2.818955    3.793511    0.131920
     47          1           0       -1.983252    4.536339    1.493569
     48          6           0       -0.593107    6.441001    0.018566
     49          1           0       -0.579330    6.693069    1.089386
     50          1           0       -0.567075    7.391019   -0.527172
     51          6           0        7.286325   -0.573238   -2.003286
     52          1           0        6.653928   -1.465563   -2.070906
     53          1           0        7.282923   -0.122411   -3.007796
     54          6           0       -1.892607    5.703236   -0.302437
     55          1           0       -1.954709    5.538480   -1.385039
     56          6           0        7.415757    1.766399   -1.039656
     57          1           0        7.263513    2.281192   -1.996758
     58          1           0        8.491579    1.611126   -0.915474
     59          1           0        7.099222    2.443449   -0.243168
     60          6           0        8.711701   -1.036636   -1.659040
     61          1           0        9.397700   -0.182062   -1.658532
     62          1           0        8.714488   -1.437439   -0.636195
     63          6           0        9.226283   -2.103697   -2.639192
     64          1           0        9.180888   -1.694111   -3.658790
     65          1           0        8.533071   -2.957166   -2.625576
     66          6           0       10.657245   -2.637156   -2.394762
     67          1           0       10.837755   -3.385185   -3.181002
     68          6           0       10.797814   -3.359267   -1.044460
     69          1           0       10.694086   -2.665543   -0.202159
     70          1           0       11.781695   -3.834227   -0.956828
     71          1           0       10.038054   -4.141300   -0.929141
     72          6           0       11.731976   -1.548806   -2.553697
     73          1           0       11.661361   -0.791691   -1.764212
     74          1           0       12.736978   -1.982816   -2.500080
     75          1           0       11.640923   -1.035831   -3.518411
 ---------------------------------------------------------------------

 SCF Done:  E(RHF) =  -1198.92738715     A.U. after    9 cycles

 Alpha  occ. eigenvalues --  -20.55895 -20.55562 -11.28018 -11.27882 -11.24877
 Alpha  occ. eigenvalues --  -11.24087 -11.23177 -11.22918 -11.22892 -11.22736
 Alpha  occ. eigenvalues --  -11.22566 -11.22510 -11.22459 -11.22277 -11.22264
 Alpha  occ. eigenvalues --  -11.22241 -11.21959 -11.21918 -11.21656 -11.21558
 Alpha  occ. eigenvalues --  -11.21439 -11.21340 -11.21240 -11.21023 -11.20982
 Alpha  occ. eigenvalues --  -11.20961 -11.20949 -11.20824 -11.20418  -1.35267
 Alpha  occ. eigenvalues --   -1.34752  -1.16050  -1.13847  -1.09581  -1.08075
 Alpha  occ. eigenvalues --   -1.05922  -1.05715  -1.03047  -1.01702  -0.99501
 Alpha  occ. eigenvalues --   -0.97910  -0.96230  -0.92847  -0.92334  -0.92273
 Alpha  occ. eigenvalues --   -0.90888  -0.90572  -0.86174  -0.84298  -0.82807
 Alpha  occ. eigenvalues --   -0.82664  -0.78964  -0.78346  -0.76974  -0.74621
 Alpha  occ. eigenvalues --   -0.74067  -0.72004  -0.69934  -0.67248  -0.66463
 Alpha  occ. eigenvalues --   -0.64655  -0.64035  -0.63808  -0.63346  -0.62503
 Alpha  occ. eigenvalues --   -0.62255  -0.61219  -0.60746  -0.60233  -0.59252
 Alpha  occ. eigenvalues --   -0.58665  -0.58399  -0.57915  -0.57497  -0.56314
 Alpha  occ. eigenvalues --   -0.56062  -0.55575  -0.55439  -0.54795  -0.54504
 Alpha  occ. eigenvalues --   -0.54136  -0.53336  -0.53158  -0.52847  -0.52495
 Alpha  occ. eigenvalues --   -0.52205  -0.51539  -0.50895  -0.50778  -0.50611
 Alpha  occ. eigenvalues --   -0.48619  -0.48288  -0.48097  -0.48010  -0.47152
 Alpha  occ. eigenvalues --   -0.46977  -0.46495  -0.46013  -0.45922  -0.45376
 Alpha  occ. eigenvalues --   -0.44973  -0.44823  -0.44534  -0.43955  -0.43431
 Alpha  occ. eigenvalues --   -0.43306  -0.42508  -0.42346  -0.41517  -0.40347
 Alpha  occ. eigenvalues --   -0.38405  -0.34007
 Alpha virt. eigenvalues --    0.16215   0.20936   0.21338   0.21975   0.22309
 Alpha virt. eigenvalues --    0.22807   0.24239   0.24650   0.24949   0.25768
 Alpha virt. eigenvalues --    0.25826   0.26198   0.26646   0.26803   0.27539

 Mulliken charges:
               1
     1  O   -0.763774
     2  H    0.429033
     3  O   -0.758995
     4  H    0.428102
     5  C   -0.029777
     6  C   -0.167541
     7  H    0.150149
     8  C   -0.167313
     9  H    0.154323
    10  C   -0.166996
    11  H    0.159346
    12  C   -0.135695
    13  H    0.151759
    14  C   -0.297910
    15  H    0.152318
    16  H    0.164894
    17  C   -0.040624
    18  C   -0.298277
    19  H    0.183479
    20  H    0.159151
    21  C   -0.327568
    22  H    0.163658
    23  H    0.166844
    24  C   -0.340156
    25  H    0.158155
    26  H    0.166738
    27  C    0.184286
    28  H    0.176688
    29  C   -0.148723
    30  H    0.152103
    31  C   -0.487614
    32  H    0.159401
    33  H    0.167567
    34  H    0.162541
    35  C    0.074486
    36  C   -0.326050
    37  H    0.166488
    38  H    0.172985
    39  C   -0.290615
    40  H    0.193944
    41  C   -0.477662
    42  H    0.167244
    43  H    0.162514
    44  H    0.164628
    45  C   -0.365967
    46  H    0.193881
    47  H    0.152377
    48  C   -0.340749
    49  H    0.144073
    50  H    0.183639
    51  C   -0.307656
    52  H    0.167120
    53  H    0.147330
    54  C    0.193728
    55  H    0.174217
    56  C   -0.485018
    57  H    0.152767
    58  H    0.163419
    59  H    0.160735
    60  C   -0.314643
    61  H    0.158752
    62  H    0.153971
    63  C   -0.300868
    64  H    0.151581
    65  H    0.151787
    66  C   -0.146360
    67  H    0.155476
    68  C   -0.476154
    69  H    0.155885
    70  H    0.158016
    71  H    0.156996
    72  C   -0.476222
    73  H    0.155208
    74  H    0.158315
    75  H    0.156833
 Sum of Mulliken charges =   0.00000

 Dipole moment (field-independent basis, Debye):
    X=              1.4460    Y=              1.1735    Z=              1.8988  Tot=              2.6596
 Quadrupole moment (field-independent basis, Debye-Ang):
   XX=           -193.2161   YY=           -188.1557   ZZ=           -180.9140
   XY=              9.8755   XZ=             -5.1516   YZ=              8.4636

 ESP charges:
               1
     1  O   -0.794564
     2  H    0.448601
     3  O   -0.736907
     4  H    0.418404
     5  C    0.622661
     6  C    0.212711
     7  H   -0.027980
     8  C   -0.540472
     9  H    0.153582
    10  C   -0.323730
    11  H    0.110421
    12  C   -0.120161
    13  H    0.007708
    14  C   -0.255447
    15  H    0.025525
    16  H    0.027945
    17  C    0.163112
    18  C   -0.257765
    19  H    0.103249
    20  H    0.059963
    21  C    0.196854
    22  H   -0.005267
    23  H   -0.019385
    24  C   -0.142100
    25  H    0.060239
    26  H    0.051890
    27  C    0.792051
    28  H    0.003062
    29  C    0.133843
    30  H    0.004925
    31  C   -0.649853
    32  H    0.143130
    33  H    0.144412
    34  H    0.135833
    35  C    0.255929
    36  C   -0.086789
    37  H    0.035525
    38  H    0.082533
    39  C   -0.660809
    40  H    0.208372
    41  C   -0.336685
    42  H    0.089999
    43  H    0.085787
    44  H    0.097952
    45  C   -0.457903
    46  H    0.137316
    47  H    0.126252
    48  C   -0.338735
    49  H    0.092774
    50  H    0.094746
    51  C   -0.114398
    52  H    0.018667
    53  H    0.042025
    54  C    0.516991
    55  H    0.047312
    56  C   -0.458462
    57  H    0.107615
    58  H    0.098803
    59  H    0.113654
    60  C    0.193142
    61  H    0.002861
    62  H   -0.023081
    63  C   -0.363437
    64  H    0.060435
    65  H    0.071426
    66  C    0.457771
    67  H   -0.047114
    68  C   -0.439044
    69  H    0.097748
    70  H    0.095518
    71  H    0.097250
    72  C   -0.431886
    73  H    0.093494
    74  H    0.094584
    75  H    0.095371
 Sum of ESP charges =   0.00000

 Normal termination of Gaussian 09 at Thu May 18 12:25:05 2017.
