 Gaussian 09, Revision D.01,
 Gaussian 09:  EM64L-G09RevD.01 24-Apr-2013

 ----------------------------------------------------------------------
 #P HF/6-31G* SCF(Conver=6) NoSymm Test Pop=mk IOp(6/33=2) GFInput GFPr
 int
 ----------------------------------------------------------------------

 ----------------------------------------------
 MEP - Input generated by R.E.D.-III.x MOLECULE
 ----------------------------------------------
 Symbolic Z-matrix:
 Charge =  0 Multiplicity = 1

                          Input orientation:
 ---------------------------------------------------------------------
 Center     Atomic      Atomic             Coordinates (Angstroms)
 Number     Number       Type             X           Y           Z
 ---------------------------------------------------------------------
      1          8           0        0.000000    0.000000    0.000000
      2          1           0        0.967635    0.000000    0.000000
      3          8           0        1.617272   -2.815669    6.386070
      4          1           0        2.555041   -2.587706    6.455250
      5          6           0       -1.194241    4.089248    1.648353
      6          6           0       -1.276890    2.601893    1.190703
      7          1           0       -2.251495    2.241845    1.562385
      8          6           0       -0.235444    1.660699    1.821953
      9          1           0        0.774593    1.956670    1.503204
     10          6           0       -0.331562    1.740242    3.372531
     11          1           0       -1.315225    1.314135    3.630372
     12          6           0       -2.389342    4.670529    0.815380
     13          1           0       -3.280511    4.219558    1.273771
     14          6           0       -1.370695    4.102806    3.177805
     15          1           0       -2.382599    3.751770    3.424146
     16          1           0       -1.284046    5.118874    3.580603
     17          6           0        0.721991    0.837138    4.104402
     18          6           0       -1.399622    2.688321   -0.342643
     19          1           0       -1.867337    1.799344   -0.771925
     20          1           0       -0.409448    2.763176   -0.804501
     21          6           0       -0.336266    3.201836    3.878721
     22          1           0        0.658148    3.642673    3.751137
     23          1           0       -0.536707    3.215485    4.955736
     24          6           0       -2.229766    3.981834   -0.576636
     25          1           0       -1.726011    4.641843   -1.290444
     26          1           0       -3.214210    3.763839   -1.005633
     27          6           0       -0.443222    0.206492    1.355951
     28          1           0       -1.521714    0.000255    1.303114
     29          6           0       -2.725239    6.185833    0.707009
     30          1           0       -3.568413    6.211206    0.000000
     31          6           0        0.159028    4.731586    1.263352
     32          1           0        1.008065    4.124971    1.589212
     33          1           0        0.258842    4.869324    0.183952
     34          1           0        0.269161    5.713430    1.732728
     35          6           0        0.762499   -0.549635    3.452844
     36          6           0        0.282507    0.662361    5.592101
     37          1           0       -0.787026    0.411028    5.606755
     38          1           0        0.383994    1.617980    6.117155
     39          6           0        0.209806   -0.803280    2.257577
     40          1           0        0.238424   -1.816295    1.856269
     41          6           0        2.144420    1.456422    4.053362
     42          1           0        2.205438    2.365544    4.659435
     43          1           0        2.898544    0.763497    4.435434
     44          1           0        2.430143    1.709801    3.027851
     45          6           0        1.452930   -1.658090    4.225106
     46          1           0        1.327134   -2.614787    3.708767
     47          1           0        2.536622   -1.462258    4.268601
     48          6           0        1.042965   -0.422174    6.370879
     49          1           0        2.103519   -0.148876    6.475451
     50          1           0        0.639507   -0.505603    7.386411
     51          6           0       -3.229472    6.832781    2.020608
     52          1           0       -2.414605    6.831698    2.755902
     53          1           0       -3.431477    7.892640    1.807521
     54          6           0        0.944808   -1.776619    5.669630
     55          1           0       -0.103788   -2.097873    5.652794
     56          6           0       -1.644139    7.096567    0.090379
     57          1           0       -0.841804    7.322233    0.799073
     58          1           0       -2.093378    8.052237   -0.202997
     59          1           0       -1.187926    6.664173   -0.804840
     60          6           0       -4.490631    6.235574    2.675157
     61          1           0       -4.308266    5.193899    2.962453
     62          1           0       -4.660076    6.778940    3.613457
     63          6           0       -5.752878    6.323939    1.801104
     64          1           0       -5.611776    5.719011    0.895574
     65          1           0       -5.868745    7.362222    1.456506
     66          6           0       -7.078958    5.882814    2.465526
     67          1           0       -7.854140    5.995729    1.693180
     68          6           0       -7.484515    6.784277    3.643580
     69          1           0       -6.794773    6.682726    4.489343
     70          1           0       -8.485073    6.522786    4.006565
     71          1           0       -7.501414    7.840554    3.350272
     72          6           0       -7.068707    4.402374    2.881311
     73          1           0       -6.360860    4.217147    3.697532
     74          1           0       -8.059028    4.088541    3.230561
     75          1           0       -6.789987    3.753797    2.042399
 ---------------------------------------------------------------------

 SCF Done:  E(RHF) =  -1198.91947635     A.U. after    9 cycles

 Alpha  occ. eigenvalues --  -20.55900 -20.55571 -11.28024 -11.27889 -11.24901
 Alpha  occ. eigenvalues --  -11.24096 -11.23235 -11.22923 -11.22908 -11.22751
 Alpha  occ. eigenvalues --  -11.22575 -11.22553 -11.22530 -11.22355 -11.22269
 Alpha  occ. eigenvalues --  -11.22248 -11.22004 -11.21881 -11.21683 -11.21664
 Alpha  occ. eigenvalues --  -11.21502 -11.21474 -11.21413 -11.21081 -11.21035
 Alpha  occ. eigenvalues --  -11.20909 -11.20887 -11.20787 -11.20501  -1.35272
 Alpha  occ. eigenvalues --   -1.34764  -1.16057  -1.13829  -1.09570  -1.08014
 Alpha  occ. eigenvalues --   -1.05917  -1.05675  -1.03072  -1.01668  -0.99522
 Alpha  occ. eigenvalues --   -0.97876  -0.96301  -0.92548  -0.92435  -0.92375
 Alpha  occ. eigenvalues --   -0.91482  -0.90538  -0.86182  -0.84208  -0.83089
 Alpha  occ. eigenvalues --   -0.82749  -0.79151  -0.78689  -0.76934  -0.74937
 Alpha  occ. eigenvalues --   -0.73586  -0.71303  -0.69875  -0.67235  -0.66111
 Alpha  occ. eigenvalues --   -0.64605  -0.63973  -0.63823  -0.63155  -0.62578
 Alpha  occ. eigenvalues --   -0.62482  -0.61576  -0.60665  -0.59925  -0.59133
 Alpha  occ. eigenvalues --   -0.59072  -0.58487  -0.57690  -0.57479  -0.56173
 Alpha  occ. eigenvalues --   -0.56116  -0.55862  -0.55427  -0.54940  -0.54532
 Alpha  occ. eigenvalues --   -0.54232  -0.53658  -0.53397  -0.53078  -0.52679
 Alpha  occ. eigenvalues --   -0.52163  -0.51612  -0.51322  -0.50457  -0.50095
 Alpha  occ. eigenvalues --   -0.48759  -0.48549  -0.48293  -0.48025  -0.47422
 Alpha  occ. eigenvalues --   -0.47068  -0.46776  -0.46289  -0.46000  -0.45272
 Alpha  occ. eigenvalues --   -0.45072  -0.44828  -0.44395  -0.43458  -0.43275
 Alpha  occ. eigenvalues --   -0.42667  -0.42520  -0.42082  -0.41665  -0.40295
 Alpha  occ. eigenvalues --   -0.38440  -0.34014
 Alpha virt. eigenvalues --    0.16206   0.20102   0.20932   0.21928   0.22323
 Alpha virt. eigenvalues --    0.22701   0.23741   0.24430   0.24847   0.24977
 Alpha virt. eigenvalues --    0.25734   0.26314   0.26491   0.27006   0.27388

 Mulliken charges:
               1
     1  O   -0.763694
     2  H    0.429108
     3  O   -0.758976
     4  H    0.428113
     5  C   -0.022446
     6  C   -0.169829
     7  H    0.149987
     8  C   -0.167980
     9  H    0.154082
    10  C   -0.166971
    11  H    0.159152
    12  C   -0.154979
    13  H    0.158231
    14  C   -0.301813
    15  H    0.153758
    16  H    0.162754
    17  C   -0.040681
    18  C   -0.297743
    19  H    0.183036
    20  H    0.159530
    21  C   -0.327497
    22  H    0.165250
    23  H    0.166856
    24  C   -0.332521
    25  H    0.159154
    26  H    0.161999
    27  C    0.185312
    28  H    0.176540
    29  C   -0.147589
    30  H    0.158652
    31  C   -0.485213
    32  H    0.158696
    33  H    0.168736
    34  H    0.160866
    35  C    0.074509
    36  C   -0.326078
    37  H    0.166470
    38  H    0.172920
    39  C   -0.290825
    40  H    0.194039
    41  C   -0.477524
    42  H    0.167299
    43  H    0.162536
    44  H    0.164724
    45  C   -0.366036
    46  H    0.193908
    47  H    0.152392
    48  C   -0.340718
    49  H    0.144118
    50  H    0.183662
    51  C   -0.302806
    52  H    0.154463
    53  H    0.152019
    54  C    0.193738
    55  H    0.174242
    56  C   -0.481456
    57  H    0.155171
    58  H    0.157992
    59  H    0.161006
    60  C   -0.321548
    61  H    0.161191
    62  H    0.159056
    63  C   -0.305468
    64  H    0.156132
    65  H    0.150575
    66  C   -0.145766
    67  H    0.155759
    68  C   -0.476333
    69  H    0.155437
    70  H    0.158492
    71  H    0.157031
    72  C   -0.477086
    73  H    0.155080
    74  H    0.159094
    75  H    0.156706
 Sum of Mulliken charges =   0.00000

 Dipole moment (field-independent basis, Debye):
    X=              1.5726    Y=              1.9109    Z=              0.9633  Tot=              2.6557
 Quadrupole moment (field-independent basis, Debye-Ang):
   XX=           -177.5203   YY=           -193.6059   ZZ=           -190.3304
   XY=             -0.8155   XZ=              4.7168   YZ=             12.2554

 ESP charges:
               1
     1  O   -0.788476
     2  H    0.447432
     3  O   -0.739438
     4  H    0.420419
     5  C    0.817133
     6  C    0.038868
     7  H   -0.037573
     8  C   -0.331906
     9  H    0.095444
    10  C   -0.291429
    11  H    0.085445
    12  C   -0.198243
    13  H    0.057904
    14  C   -0.334778
    15  H    0.095730
    16  H    0.056258
    17  C    0.290805
    18  C   -0.060316
    19  H    0.067352
    20  H    0.014224
    21  C   -0.018778
    22  H    0.043122
    23  H    0.030415
    24  C   -0.299666
    25  H    0.081701
    26  H    0.075005
    27  C    0.707922
    28  H    0.015663
    29  C    0.436634
    30  H   -0.031160
    31  C   -0.675812
    32  H    0.141273
    33  H    0.151299
    34  H    0.127429
    35  C    0.182661
    36  C   -0.078762
    37  H    0.028314
    38  H    0.079265
    39  C   -0.643425
    40  H    0.214455
    41  C   -0.299208
    42  H    0.068423
    43  H    0.068407
    44  H    0.080126
    45  C   -0.454124
    46  H    0.138589
    47  H    0.126030
    48  C   -0.390514
    49  H    0.099471
    50  H    0.108876
    51  C   -0.437613
    52  H    0.063962
    53  H    0.100354
    54  C    0.531544
    55  H    0.045118
    56  C   -0.523108
    57  H    0.114811
    58  H    0.111341
    59  H    0.114624
    60  C    0.308978
    61  H   -0.134236
    62  H   -0.010517
    63  C   -0.345466
    64  H    0.062277
    65  H    0.058549
    66  C    0.480676
    67  H   -0.049334
    68  C   -0.463578
    69  H    0.104234
    70  H    0.102789
    71  H    0.098166
    72  C   -0.487601
    73  H    0.123036
    74  H    0.105922
    75  H    0.106585
 Sum of ESP charges =   0.00000

 Normal termination of Gaussian 09 at Thu May 18 13:14:25 2017.
