 Gaussian 09, Revision D.01,
 Gaussian 09:  EM64L-G09RevD.01 24-Apr-2013

 ----------------------------------------------------------------------
 #P HF/6-31G* SCF(Conver=6) NoSymm Test Pop=mk IOp(6/33=2) GFInput GFPr
 int
 ----------------------------------------------------------------------

 ----------------------------------------------
 MEP - Input generated by R.E.D.-III.x MOLECULE
 ----------------------------------------------
 Symbolic Z-matrix:
 Charge =  0 Multiplicity = 1

                          Input orientation:
 ---------------------------------------------------------------------
 Center     Atomic      Atomic             Coordinates (Angstroms)
 Number     Number       Type             X           Y           Z
 ---------------------------------------------------------------------
      1          8           0        0.000000    0.000000    0.000000
      2          1           0        0.967631    0.000000    0.000000
      3          8           0        1.640050   -2.665009    6.445357
      4          1           0        2.578166   -2.435420    6.503565
      5          6           0       -1.195465    4.122947    1.550053
      6          6           0       -1.288039    2.624486    1.139844
      7          1           0       -2.259535    2.281767    1.536526
      8          6           0       -0.239133    1.700956    1.784532
      9          1           0        0.766929    1.997148    1.452769
     10          6           0       -0.326989    1.814328    3.332373
     11          1           0       -1.308592    1.392913    3.605152
     12          6           0       -2.381453    4.706687    0.706145
     13          1           0       -3.297678    4.363128    1.209675
     14          6           0       -1.361696    4.176693    3.081186
     15          1           0       -2.376691    3.839748    3.337268
     16          1           0       -1.267118    5.197949    3.463589
     17          6           0        0.731591    0.930463    4.079995
     18          6           0       -1.433100    2.659042   -0.390739
     19          1           0       -1.910494    1.758164   -0.783251
     20          1           0       -0.450718    2.714622   -0.871330
     21          6           0       -0.330472    3.287368    3.801761
     22          1           0        0.665093    3.722546    3.662879
     23          1           0       -0.529769    3.328906    4.878333
     24          6           0       -2.262681    3.945419   -0.654332
     25          1           0       -1.767630    4.577517   -1.401159
     26          1           0       -3.252036    3.711672   -1.060199
     27          6           0       -0.442813    0.235864    1.351406
     28          1           0       -1.520840    0.025789    1.304161
     29          6           0       -2.506664    6.239380    0.522394
     30          1           0       -1.599029    6.576933    0.000000
     31          6           0        0.141664    4.769870    1.122338
     32          1           0        1.008008    4.246539    1.535266
     33          1           0        0.261065    4.781545    0.035009
     34          1           0        0.197144    5.807405    1.468444
     35          6           0        0.769450   -0.471356    3.461832
     36          6           0        0.300450    0.792324    5.573822
     37          1           0       -0.768848    0.540938    5.600569
     38          1           0        0.404174    1.760812    6.074261
     39          6           0        0.212967   -0.752605    2.274523
     40          1           0        0.240251   -1.774689    1.896797
     41          6           0        2.153369    1.548999    4.005563
     42          1           0        2.217930    2.471773    4.590306
     43          1           0        2.910462    0.865335    4.398351
     44          1           0        2.432081    1.778915    2.972591
     45          6           0        1.462934   -1.561189    4.257540
     46          1           0        1.333476   -2.530227    3.765676
     47          1           0        2.547040   -1.365437    4.289963
     48          6           0        1.065791   -0.272452    6.374687
     49          1           0        2.126910    0.003425    6.465874
     50          1           0        0.668588   -0.330796    7.394425
     51          6           0       -3.669848    6.618810   -0.439406
     52          1           0       -3.687250    7.714750   -0.526144
     53          1           0       -3.405984    6.250800   -1.437987
     54          6           0        0.963378   -1.643779    5.707570
     55          1           0       -0.085337   -1.965076    5.705065
     56          6           0       -2.566418    7.023827    1.847843
     57          1           0       -3.298441    6.605939    2.545827
     58          1           0       -2.842003    8.068579    1.665048
     59          1           0       -1.597880    7.029450    2.355671
     60          6           0       -5.103903    6.128703   -0.137757
     61          1           0       -5.680508    6.264356   -1.061746
     62          1           0       -5.095075    5.047772    0.047006
     63          6           0       -5.840235    6.848165    1.006292
     64          1           0       -5.719412    7.933451    0.876267
     65          1           0       -5.366293    6.603732    1.963930
     66          6           0       -7.352457    6.542678    1.135700
     67          1           0       -7.697594    7.106649    2.014978
     68          6           0       -7.633664    5.056498    1.413552
     69          1           0       -7.372472    4.428824    0.553734
     70          1           0       -8.696368    4.893294    1.626343
     71          1           0       -7.061401    4.696415    2.276774
     72          6           0       -8.170889    7.044206   -0.065931
     73          1           0       -7.935566    6.488366   -0.980761
     74          1           0       -9.244630    6.925059    0.118970
     75          1           0       -7.981767    8.106284   -0.261540
 ---------------------------------------------------------------------

 SCF Done:  E(RHF) =  -1198.92146867     A.U. after    9 cycles

 Alpha  occ. eigenvalues --  -20.55900 -20.55570 -11.28024 -11.27889 -11.24887
 Alpha  occ. eigenvalues --  -11.24094 -11.23195 -11.22924 -11.22900 -11.22729
 Alpha  occ. eigenvalues --  -11.22572 -11.22523 -11.22440 -11.22293 -11.22270
 Alpha  occ. eigenvalues --  -11.22248 -11.21976 -11.21848 -11.21669 -11.21578
 Alpha  occ. eigenvalues --  -11.21431 -11.21360 -11.21292 -11.21034 -11.20985
 Alpha  occ. eigenvalues --  -11.20956 -11.20933 -11.20817 -11.20463  -1.35272
 Alpha  occ. eigenvalues --   -1.34760  -1.16068  -1.13875  -1.09461  -1.07996
 Alpha  occ. eigenvalues --   -1.05899  -1.05547  -1.03056  -1.01601  -0.99312
 Alpha  occ. eigenvalues --   -0.97872  -0.96252  -0.92917  -0.92324  -0.92299
 Alpha  occ. eigenvalues --   -0.91448  -0.90621  -0.86182  -0.84405  -0.82959
 Alpha  occ. eigenvalues --   -0.82812  -0.79023  -0.78443  -0.76925  -0.74629
 Alpha  occ. eigenvalues --   -0.73352  -0.71571  -0.69980  -0.67287  -0.66581
 Alpha  occ. eigenvalues --   -0.64790  -0.63967  -0.63690  -0.63153  -0.62473
 Alpha  occ. eigenvalues --   -0.61580  -0.61478  -0.60742  -0.60229  -0.59656
 Alpha  occ. eigenvalues --   -0.58714  -0.58572  -0.57658  -0.57023  -0.56402
 Alpha  occ. eigenvalues --   -0.56097  -0.55699  -0.55422  -0.54815  -0.54418
 Alpha  occ. eigenvalues --   -0.54074  -0.53711  -0.53210  -0.52798  -0.52644
 Alpha  occ. eigenvalues --   -0.52169  -0.52021  -0.51477  -0.50851  -0.50445
 Alpha  occ. eigenvalues --   -0.48565  -0.48221  -0.48200  -0.48100  -0.47348
 Alpha  occ. eigenvalues --   -0.47026  -0.46686  -0.46349  -0.46001  -0.45176
 Alpha  occ. eigenvalues --   -0.44940  -0.44809  -0.43757  -0.43558  -0.43370
 Alpha  occ. eigenvalues --   -0.42927  -0.42534  -0.42001  -0.41590  -0.40389
 Alpha  occ. eigenvalues --   -0.38523  -0.34014
 Alpha virt. eigenvalues --    0.16206   0.20519   0.20989   0.22114   0.22218
 Alpha virt. eigenvalues --    0.22865   0.24079   0.24286   0.24769   0.25404
 Alpha virt. eigenvalues --    0.25902   0.26298   0.26550   0.26937   0.27441

 Mulliken charges:
               1
     1  O   -0.763715
     2  H    0.429030
     3  O   -0.758983
     4  H    0.428109
     5  C   -0.028430
     6  C   -0.167235
     7  H    0.149950
     8  C   -0.167137
     9  H    0.154372
    10  C   -0.167072
    11  H    0.159267
    12  C   -0.142276
    13  H    0.154700
    14  C   -0.297965
    15  H    0.151449
    16  H    0.165456
    17  C   -0.040571
    18  C   -0.298077
    19  H    0.182271
    20  H    0.160251
    21  C   -0.327637
    22  H    0.163792
    23  H    0.166868
    24  C   -0.340521
    25  H    0.158887
    26  H    0.167038
    27  C    0.184474
    28  H    0.176657
    29  C   -0.142739
    30  H    0.155324
    31  C   -0.488231
    32  H    0.159681
    33  H    0.167754
    34  H    0.162289
    35  C    0.074513
    36  C   -0.326102
    37  H    0.166458
    38  H    0.173005
    39  C   -0.290845
    40  H    0.193983
    41  C   -0.477700
    42  H    0.167221
    43  H    0.162552
    44  H    0.164679
    45  C   -0.365977
    46  H    0.193900
    47  H    0.152376
    48  C   -0.340747
    49  H    0.144104
    50  H    0.183653
    51  C   -0.313588
    52  H    0.152194
    53  H    0.162993
    54  C    0.193730
    55  H    0.174230
    56  C   -0.487125
    57  H    0.158104
    58  H    0.158615
    59  H    0.158913
    60  C   -0.319497
    61  H    0.158498
    62  H    0.161141
    63  C   -0.302940
    64  H    0.149771
    65  H    0.156712
    66  C   -0.146865
    67  H    0.154736
    68  C   -0.476574
    69  H    0.157118
    70  H    0.158378
    71  H    0.154857
    72  C   -0.476485
    73  H    0.155998
    74  H    0.158236
    75  H    0.156747
 Sum of Mulliken charges =   0.00000

 Dipole moment (field-independent basis, Debye):
    X=              1.7368    Y=              1.9622    Z=              0.9167  Tot=              2.7762
 Quadrupole moment (field-independent basis, Debye-Ang):
   XX=           -178.9385   YY=           -192.5131   ZZ=           -190.6866
   XY=              0.4314   XZ=              3.7572   YZ=             12.3490

 ESP charges:
               1
     1  O   -0.777093
     2  H    0.445029
     3  O   -0.738900
     4  H    0.420172
     5  C    0.470522
     6  C    0.213774
     7  H   -0.045880
     8  C   -0.426370
     9  H    0.111382
    10  C   -0.069709
    11  H    0.034286
    12  C   -0.023376
    13  H   -0.012206
    14  C   -0.187887
    15  H    0.013359
    16  H    0.032638
    17  C    0.167881
    18  C   -0.294371
    19  H    0.106675
    20  H    0.061302
    21  C    0.042644
    22  H    0.012198
    23  H   -0.005574
    24  C   -0.049644
    25  H    0.030676
    26  H    0.012685
    27  C    0.702091
    28  H    0.010089
    29  C    0.332264
    30  H   -0.036700
    31  C   -0.561346
    32  H    0.126024
    33  H    0.119335
    34  H    0.107289
    35  C    0.212242
    36  C   -0.079577
    37  H    0.025615
    38  H    0.081432
    39  C   -0.649138
    40  H    0.214516
    41  C   -0.280206
    42  H    0.065560
    43  H    0.070278
    44  H    0.072595
    45  C   -0.448286
    46  H    0.135480
    47  H    0.124606
    48  C   -0.367126
    49  H    0.095369
    50  H    0.103527
    51  C   -0.323092
    52  H    0.076791
    53  H    0.033254
    54  C    0.523992
    55  H    0.046405
    56  C   -0.481883
    57  H    0.095399
    58  H    0.107295
    59  H    0.106243
    60  C    0.233272
    61  H   -0.017389
    62  H   -0.026536
    63  C   -0.274884
    64  H    0.053102
    65  H    0.045718
    66  C    0.423423
    67  H   -0.045376
    68  C   -0.422364
    69  H    0.091113
    70  H    0.096415
    71  H    0.089805
    72  C   -0.454598
    73  H    0.104265
    74  H    0.102707
    75  H    0.096775
 Sum of ESP charges =   0.00000

 Normal termination of Gaussian 09 at Thu May 18 12:40:38 2017.
