 Gaussian 09, Revision D.01,
 Gaussian 09:  EM64L-G09RevD.01 24-Apr-2013

 ----------------------------------------------------------------------
 #P HF/6-31G* SCF(Conver=6) NoSymm Test Pop=mk IOp(6/33=2) GFInput GFPr
 int
 ----------------------------------------------------------------------

 ----------------------------------------------
 MEP - Input generated by R.E.D.-III.x MOLECULE
 ----------------------------------------------
 Symbolic Z-matrix:
 Charge =  0 Multiplicity = 1

                          Input orientation:
 ---------------------------------------------------------------------
 Center     Atomic      Atomic             Coordinates (Angstroms)
 Number     Number       Type             X           Y           Z
 ---------------------------------------------------------------------
      1          8           0        0.000000    0.000000    0.000000
      2          1           0       -0.295112    0.159590    0.907610
      3          8           0       -1.440618    7.020326    0.000000
      4          1           0       -1.495656    7.198366    0.949437
      5          6           0        4.520312    0.522992    0.136755
      6          6           0        3.079730    0.380283   -0.421607
      7          1           0        3.156502    0.659749   -1.486489
      8          6           0        2.059120    1.361904    0.178542
      9          1           0        1.943061    1.164569    1.254314
     10          6           0        2.560537    2.821231   -0.031144
     11          1           0        2.526879    2.988867   -1.120314
     12          6           0        5.233162   -0.595742   -0.685584
     13          1           0        5.247825   -0.201782   -1.712354
     14          6           0        4.999222    1.950453   -0.175564
     15          1           0        5.064685    2.070258   -1.266685
     16          1           0        6.008128    2.128870    0.220094
     17          6           0        1.600404    3.896734    0.588633
     18          6           0        2.815349   -1.138477   -0.391713
     19          1           0        2.055879   -1.439465   -1.117142
     20          1           0        2.436278   -1.446924    0.588209
     21          6           0        4.037512    3.009102    0.398228
     22          1           0        4.111024    2.996011    1.490565
     23          1           0        4.383259    4.000504    0.085637
     24          6           0        4.210459   -1.774257   -0.678630
     25          1           0        4.456697   -2.513633    0.088681
     26          1           0        4.222364   -2.307730   -1.634952
     27          6           0        0.669595    1.188974   -0.463847
     28          1           0        0.796366    1.003635   -1.540028
     29          6           0        6.716621   -0.932773   -0.355681
     30          1           0        7.181052    0.000000    0.000000
     31          6           0        4.594459    0.256933    1.656630
     32          1           0        3.985347    0.961792    2.228510
     33          1           0        4.250641   -0.747713    1.917377
     34          1           0        5.624960    0.359659    2.013466
     35          6           0        0.147582    3.571094    0.223694
     36          6           0        1.953396    5.291034   -0.018006
     37          1           0        2.050271    5.177208   -1.106575
     38          1           0        2.934283    5.610608    0.349243
     39          6           0       -0.225098    2.380866   -0.269255
     40          1           0       -1.266870    2.214998   -0.543595
     41          6           0        1.725781    3.957015    2.134793
     42          1           0        2.695114    4.362045    2.441173
     43          1           0        0.956431    4.595974    2.576015
     44          1           0        1.613992    2.963864    2.580486
     45          6           0       -0.880742    4.667150    0.430793
     46          1           0       -1.853784    4.352244    0.041274
     47          1           0       -1.016362    4.851605    1.508806
     48          6           0        0.926992    6.399955    0.261200
     49          1           0        0.884785    6.623074    1.337728
     50          1           0        1.232102    7.326245   -0.238735
     51          6           0        6.932687   -1.999188    0.745000
     52          1           0        6.185591   -1.887512    1.537305
     53          1           0        6.768430   -2.997678    0.315295
     54          6           0       -0.466875    5.996006   -0.218391
     55          1           0       -0.450040    5.869960   -1.307826
     56          6           0        7.456909   -1.340135   -1.646358
     57          1           0        6.995288   -2.228544   -2.095124
     58          1           0        8.509716   -1.574205   -1.458414
     59          1           0        7.425967   -0.536978   -2.391041
     60          6           0        8.325550   -1.956716    1.396126
     61          1           0        9.099491   -2.064551    0.626842
     62          1           0        8.473616   -0.964894    1.844590
     63          6           0        8.505825   -3.046172    2.465364
     64          1           0        8.337215   -4.027129    1.997954
     65          1           0        7.714666   -2.931828    3.220657
     66          6           0        9.869655   -3.084243    3.193666
     67          1           0        9.805739   -3.917584    3.909024
     68          6           0       10.141689   -1.809594    4.009726
     69          1           0       10.281546   -0.936658    3.361716
     70          1           0       11.051411   -1.918479    4.611233
     71          1           0        9.313586   -1.589341    4.693788
     72          6           0       11.040131   -3.393148    2.245360
     73          1           0       11.212264   -2.575905    1.535443
     74          1           0       11.969646   -3.537824    2.807777
     75          1           0       10.854747   -4.305639    1.666515
 ---------------------------------------------------------------------

 SCF Done:  E(RHF) =  -1198.92505655     A.U. after    9 cycles

 Alpha  occ. eigenvalues --  -20.55905 -20.55575 -11.28028 -11.27876 -11.24922
 Alpha  occ. eigenvalues --  -11.24100 -11.23295 -11.22925 -11.22916 -11.22583
 Alpha  occ. eigenvalues --  -11.22548 -11.22531 -11.22490 -11.22307 -11.22284
 Alpha  occ. eigenvalues --  -11.22251 -11.22068 -11.21713 -11.21700 -11.21626
 Alpha  occ. eigenvalues --  -11.21505 -11.21415 -11.21217 -11.21055 -11.21039
 Alpha  occ. eigenvalues --  -11.21028 -11.20899 -11.20895 -11.20580  -1.35278
 Alpha  occ. eigenvalues --   -1.34765  -1.16094  -1.13903  -1.09566  -1.08062
 Alpha  occ. eigenvalues --   -1.05952  -1.05674  -1.03042  -1.01723  -0.99681
 Alpha  occ. eigenvalues --   -0.97917  -0.96179  -0.92629  -0.92403  -0.92052
 Alpha  occ. eigenvalues --   -0.91254  -0.90631  -0.86187  -0.84000  -0.82934
 Alpha  occ. eigenvalues --   -0.82869  -0.79578  -0.78441  -0.77330  -0.74550
 Alpha  occ. eigenvalues --   -0.73345  -0.71645  -0.69963  -0.67254  -0.66305
 Alpha  occ. eigenvalues --   -0.64427  -0.64023  -0.63883  -0.63549  -0.62753
 Alpha  occ. eigenvalues --   -0.62317  -0.61169  -0.60677  -0.60197  -0.59600
 Alpha  occ. eigenvalues --   -0.58841  -0.58562  -0.57920  -0.57544  -0.56317
 Alpha  occ. eigenvalues --   -0.56154  -0.55904  -0.55232  -0.54624  -0.54334
 Alpha  occ. eigenvalues --   -0.53821  -0.53476  -0.53147  -0.52816  -0.52581
 Alpha  occ. eigenvalues --   -0.52268  -0.51766  -0.51205  -0.50932  -0.49799
 Alpha  occ. eigenvalues --   -0.48708  -0.48511  -0.48276  -0.47993  -0.47380
 Alpha  occ. eigenvalues --   -0.47048  -0.46577  -0.46338  -0.45905  -0.45230
 Alpha  occ. eigenvalues --   -0.45088  -0.44998  -0.44469  -0.44357  -0.43462
 Alpha  occ. eigenvalues --   -0.42556  -0.42461  -0.41791  -0.41631  -0.40402
 Alpha  occ. eigenvalues --   -0.38647  -0.34017
 Alpha virt. eigenvalues --    0.16196   0.20797   0.21199   0.21908   0.22406
 Alpha virt. eigenvalues --    0.22746   0.23938   0.24294   0.24732   0.25170
 Alpha virt. eigenvalues --    0.25955   0.26319   0.26797   0.27157   0.27482

 Mulliken charges:
               1
     1  O   -0.763765
     2  H    0.429003
     3  O   -0.758959
     4  H    0.428113
     5  C   -0.032103
     6  C   -0.166499
     7  H    0.149957
     8  C   -0.167669
     9  H    0.154614
    10  C   -0.167624
    11  H    0.159596
    12  C   -0.148551
    13  H    0.155754
    14  C   -0.295708
    15  H    0.152763
    16  H    0.158968
    17  C   -0.040354
    18  C   -0.299234
    19  H    0.181227
    20  H    0.160256
    21  C   -0.328238
    22  H    0.164637
    23  H    0.167621
    24  C   -0.334259
    25  H    0.166641
    26  H    0.163314
    27  C    0.185737
    28  H    0.176565
    29  C   -0.143528
    30  H    0.155629
    31  C   -0.487680
    32  H    0.160338
    33  H    0.167567
    34  H    0.162354
    35  C    0.074298
    36  C   -0.326218
    37  H    0.166503
    38  H    0.173073
    39  C   -0.291090
    40  H    0.194058
    41  C   -0.478006
    42  H    0.166974
    43  H    0.162721
    44  H    0.165106
    45  C   -0.366025
    46  H    0.193917
    47  H    0.152352
    48  C   -0.340759
    49  H    0.144075
    50  H    0.183668
    51  C   -0.313886
    52  H    0.163438
    53  H    0.153030
    54  C    0.193744
    55  H    0.174252
    56  C   -0.482279
    57  H    0.156045
    58  H    0.160630
    59  H    0.157360
    60  C   -0.314803
    61  H    0.158577
    62  H    0.152577
    63  C   -0.300698
    64  H    0.152279
    65  H    0.150545
    66  C   -0.146310
    67  H    0.155445
    68  C   -0.476047
    69  H    0.155719
    70  H    0.158252
    71  H    0.156172
    72  C   -0.476462
    73  H    0.155698
    74  H    0.158343
    75  H    0.157245
 Sum of Mulliken charges =   0.00000

 Dipole moment (field-independent basis, Debye):
    X=              1.4515    Y=              0.8360    Z=              2.2111  Tot=              2.7739
 Quadrupole moment (field-independent basis, Debye-Ang):
   XX=           -187.7918   YY=           -193.1337   ZZ=           -181.5462
   XY=              9.2801   XZ=             -2.6469   YZ=              9.4465

 ESP charges:
               1
     1  O   -0.794978
     2  H    0.442874
     3  O   -0.735543
     4  H    0.420613
     5  C    0.505269
     6  C    0.052069
     7  H   -0.007483
     8  C   -0.430067
     9  H    0.115716
    10  C   -0.027733
    11  H    0.020184
    12  C    0.117477
    13  H   -0.032424
    14  C   -0.225629
    15  H    0.023819
    16  H    0.031966
    17  C    0.133626
    18  C   -0.246524
    19  H    0.097301
    20  H    0.066482
    21  C    0.081491
    22  H    0.011399
    23  H   -0.013253
    24  C   -0.082495
    25  H    0.011733
    26  H    0.029668
    27  C    0.812507
    28  H   -0.008582
    29  C    0.016659
    30  H    0.003293
    31  C   -0.697297
    32  H    0.156056
    33  H    0.170028
    34  H    0.151434
    35  C    0.232971
    36  C   -0.027027
    37  H    0.015429
    38  H    0.064387
    39  C   -0.701871
    40  H    0.218618
    41  C   -0.348820
    42  H    0.082127
    43  H    0.092467
    44  H    0.088754
    45  C   -0.453874
    46  H    0.142005
    47  H    0.125167
    48  C   -0.367977
    49  H    0.095041
    50  H    0.100538
    51  C    0.005337
    52  H    0.000871
    53  H    0.015075
    54  C    0.511022
    55  H    0.048831
    56  C   -0.419663
    57  H    0.099134
    58  H    0.106693
    59  H    0.097161
    60  C    0.131637
    61  H    0.002334
    62  H   -0.028406
    63  C   -0.326596
    64  H    0.052111
    65  H    0.052782
    66  C    0.489068
    67  H   -0.061280
    68  C   -0.443255
    69  H    0.100762
    70  H    0.093187
    71  H    0.096407
    72  C   -0.419603
    73  H    0.089985
    74  H    0.088867
    75  H    0.089944
 Sum of ESP charges =   0.00000

 Normal termination of Gaussian 09 at Thu May 18 12:50:55 2017.
