 Gaussian 09, Revision D.01,
 Gaussian 09:  EM64L-G09RevD.01 24-Apr-2013

 ----------------------------------------------------------------------
 #P HF/6-31G* SCF(Conver=6) NoSymm Test Pop=mk IOp(6/33=2) GFInput GFPr
 int
 ----------------------------------------------------------------------

 ----------------------------------------------
 MEP - Input generated by R.E.D.-III.x MOLECULE
 ----------------------------------------------
 Symbolic Z-matrix:
 Charge =  0 Multiplicity = 1

                          Input orientation:
 ---------------------------------------------------------------------
 Center     Atomic      Atomic             Coordinates (Angstroms)
 Number     Number       Type             X           Y           Z
 ---------------------------------------------------------------------
      1          8           0        0.000000    0.000000    0.000000
      2          1           0        0.967633    0.000000    0.000000
      3          8           0        1.598147   -0.990205    6.916160
      4          1           0        2.535228   -0.749467    6.925659
      5          6           0       -1.172076    4.372588    0.486815
      6          6           0       -1.275733    2.825149    0.445049
      7          1           0       -2.250687    2.591309    0.906266
      8          6           0       -0.237150    2.088112    1.307547
      9          1           0        0.774009    2.290876    0.925153
     10          6           0       -0.344473    2.582152    2.780450
     11          1           0       -1.327895    2.232798    3.135881
     12          6           0       -2.349478    4.740141   -0.469394
     13          1           0       -3.249206    4.462764    0.099154
     14          6           0       -1.371441    4.812071    1.946902
     15          1           0       -2.393395    4.551288    2.258012
     16          1           0       -1.280395    5.901520    2.052020
     17          6           0        0.707719    1.911904    3.732398
     18          6           0       -1.419033    2.500352   -1.055461
     19          1           0       -1.914182    1.541274   -1.224534
     20          1           0       -0.435676    2.420699   -1.530648
     21          6           0       -0.360583    4.127679    2.887498
     22          1           0        0.638441    4.524417    2.679568
     23          1           0       -0.591048    4.418353    3.918273
     24          6           0       -2.224287    3.705974   -1.631120
     25          1           0       -1.705246    4.133673   -2.493675
     26          1           0       -3.212514    3.397913   -1.988505
     27          6           0       -0.443353    0.562449    1.250754
     28          1           0       -1.521891    0.349553    1.254840
     29          6           0       -2.557102    6.232515   -0.858853
     30          1           0       -2.219428    6.833092    0.000000
     31          6           0        0.183318    4.889382   -0.044126
     32          1           0        1.025579    4.522062    0.547935
     33          1           0        0.364230    4.586605   -1.079043
     34          1           0        0.216957    5.983560   -0.005891
     35          6           0        0.753782    0.400885    3.477867
     36          6           0        0.262918    2.143108    5.210657
     37          1           0       -0.806585    1.903583    5.288990
     38          1           0        0.362152    3.204912    5.459378
     39          6           0        0.208608   -0.166537    2.391899
     40          1           0        0.241168   -1.250039    2.277798
     41          6           0        2.130063    2.497125    3.521710
     42          1           0        2.189545    3.534869    3.863852
     43          1           0        2.883356    1.932028    4.076797
     44          1           0        2.418493    2.467953    2.466540
     45          6           0        1.442117   -0.456985    4.522848
     46          1           0        1.319937   -1.517644    4.282489
     47          1           0        2.525352   -0.254088    4.516417
     48          6           0        1.021283    1.309580    6.255211
     49          1           0        2.081138    1.603272    6.286099
     50          1           0        0.613880    1.501665    7.254289
     51          6           0       -1.766428    6.721885   -2.097419
     52          1           0       -0.785919    6.239924   -2.134238
     53          1           0       -2.293414    6.403536   -3.008677
     54          6           0        0.927662   -0.183799    5.943950
     55          1           0       -0.120488   -0.500154    6.010054
     56          6           0       -4.062520    6.515430   -1.042368
     57          1           0       -4.482376    5.883239   -1.834639
     58          1           0       -4.253730    7.558076   -1.316112
     59          1           0       -4.619632    6.309394   -0.121659
     60          6           0       -1.570292    8.247150   -2.140126
     61          1           0       -2.539304    8.745550   -2.011473
     62          1           0       -0.962668    8.555322   -1.278245
     63          6           0       -0.942880    8.775700   -3.443083
     64          1           0       -0.937487    9.875410   -3.409688
     65          1           0       -1.600547    8.502240   -4.280844
     66          6           0        0.488044    8.299360   -3.772319
     67          1           0        0.485259    7.200741   -3.814093
     68          6           0        1.508634    8.728955   -2.706416
     69          1           0        1.535236    9.822427   -2.611914
     70          1           0        2.517684    8.394535   -2.973211
     71          1           0        1.275484    8.315394   -1.719898
     72          6           0        0.910839    8.810814   -5.158856
     73          1           0        0.934794    9.908031   -5.180233
     74          1           0        1.910725    8.451756   -5.428244
     75          1           0        0.213997    8.478383   -5.936834
 ---------------------------------------------------------------------

 SCF Done:  E(RHF) =  -1198.92498867     A.U. after    9 cycles

 Alpha  occ. eigenvalues --  -20.55914 -20.55591 -11.28038 -11.27893 -11.24935
 Alpha  occ. eigenvalues --  -11.24115 -11.23312 -11.22937 -11.22927 -11.22592
 Alpha  occ. eigenvalues --  -11.22571 -11.22524 -11.22428 -11.22348 -11.22295
 Alpha  occ. eigenvalues --  -11.22263 -11.22088 -11.21741 -11.21727 -11.21656
 Alpha  occ. eigenvalues --  -11.21554 -11.21496 -11.21208 -11.21091 -11.21091
 Alpha  occ. eigenvalues --  -11.21039 -11.20942 -11.20913 -11.20615  -1.35287
 Alpha  occ. eigenvalues --   -1.34780  -1.16117  -1.13930  -1.09649  -1.08092
 Alpha  occ. eigenvalues --   -1.05962  -1.05672  -1.03066  -1.01729  -0.99694
 Alpha  occ. eigenvalues --   -0.97944  -0.96198  -0.92674  -0.92429  -0.92066
 Alpha  occ. eigenvalues --   -0.91337  -0.90667  -0.86201  -0.83706  -0.82891
 Alpha  occ. eigenvalues --   -0.82696  -0.79812  -0.78531  -0.77353  -0.75033
 Alpha  occ. eigenvalues --   -0.73333  -0.71793  -0.69985  -0.67268  -0.66351
 Alpha  occ. eigenvalues --   -0.64469  -0.64025  -0.63719  -0.63438  -0.62704
 Alpha  occ. eigenvalues --   -0.62261  -0.61712  -0.60668  -0.60285  -0.59156
 Alpha  occ. eigenvalues --   -0.58891  -0.58400  -0.57773  -0.56980  -0.56465
 Alpha  occ. eigenvalues --   -0.56100  -0.55865  -0.55219  -0.54786  -0.54305
 Alpha  occ. eigenvalues --   -0.53709  -0.53626  -0.53270  -0.53107  -0.52839
 Alpha  occ. eigenvalues --   -0.52409  -0.52279  -0.51195  -0.51063  -0.49550
 Alpha  occ. eigenvalues --   -0.48955  -0.48479  -0.48324  -0.48028  -0.47288
 Alpha  occ. eigenvalues --   -0.46916  -0.46488  -0.46245  -0.45999  -0.45460
 Alpha  occ. eigenvalues --   -0.45161  -0.44765  -0.44748  -0.43958  -0.43484
 Alpha  occ. eigenvalues --   -0.42565  -0.42294  -0.42075  -0.41775  -0.40422
 Alpha  occ. eigenvalues --   -0.38670  -0.34031
 Alpha virt. eigenvalues --    0.16180   0.20189   0.21109   0.22038   0.22444
 Alpha virt. eigenvalues --    0.23165   0.23444   0.24161   0.24655   0.25169
 Alpha virt. eigenvalues --    0.25826   0.26401   0.26655   0.27258   0.27417

 Mulliken charges:
               1
     1  O   -0.763817
     2  H    0.429020
     3  O   -0.758953
     4  H    0.428130
     5  C   -0.032227
     6  C   -0.166541
     7  H    0.150107
     8  C   -0.167524
     9  H    0.154639
    10  C   -0.167584
    11  H    0.159612
    12  C   -0.148621
    13  H    0.155829
    14  C   -0.295834
    15  H    0.152890
    16  H    0.159061
    17  C   -0.040480
    18  C   -0.299410
    19  H    0.181476
    20  H    0.160232
    21  C   -0.328213
    22  H    0.164620
    23  H    0.167744
    24  C   -0.333810
    25  H    0.165653
    26  H    0.163575
    27  C    0.185623
    28  H    0.176581
    29  C   -0.143264
    30  H    0.156211
    31  C   -0.488645
    32  H    0.160954
    33  H    0.167267
    34  H    0.162392
    35  C    0.074347
    36  C   -0.326238
    37  H    0.166503
    38  H    0.173087
    39  C   -0.291063
    40  H    0.194093
    41  C   -0.477904
    42  H    0.167006
    43  H    0.162755
    44  H    0.165061
    45  C   -0.366073
    46  H    0.193950
    47  H    0.152399
    48  C   -0.340798
    49  H    0.144105
    50  H    0.183714
    51  C   -0.319110
    52  H    0.168598
    53  H    0.152376
    54  C    0.193784
    55  H    0.174254
    56  C   -0.482435
    57  H    0.156214
    58  H    0.160676
    59  H    0.157459
    60  C   -0.313647
    61  H    0.158277
    62  H    0.152168
    63  C   -0.297480
    64  H    0.150525
    65  H    0.152494
    66  C   -0.152422
    67  H    0.155892
    68  C   -0.476918
    69  H    0.152157
    70  H    0.157965
    71  H    0.160918
    72  C   -0.471718
    73  H    0.152233
    74  H    0.157832
    75  H    0.158270
 Sum of Mulliken charges =   0.00000

 Dipole moment (field-independent basis, Debye):
    X=              1.6884    Y=              2.0144    Z=              0.5297  Tot=              2.6812
 Quadrupole moment (field-independent basis, Debye-Ang):
   XX=           -178.9295   YY=           -188.0860   ZZ=           -197.0166
   XY=              0.8990   XZ=              4.0447   YZ=             12.5043

 ESP charges:
               1
     1  O   -0.786148
     2  H    0.441894
     3  O   -0.740382
     4  H    0.421291
     5  C    0.486146
     6  C    0.100030
     7  H    0.000998
     8  C   -0.415062
     9  H    0.129432
    10  C   -0.154764
    11  H    0.059164
    12  C   -0.049380
    13  H    0.012092
    14  C   -0.309342
    15  H    0.048509
    16  H    0.059554
    17  C    0.045578
    18  C   -0.258316
    19  H    0.098685
    20  H    0.070590
    21  C    0.193380
    22  H   -0.004348
    23  H   -0.027984
    24  C   -0.054759
    25  H    0.012818
    26  H    0.031456
    27  C    0.766226
    28  H   -0.002786
    29  C    0.125942
    30  H   -0.015005
    31  C   -0.805494
    32  H    0.190962
    33  H    0.201523
    34  H    0.184924
    35  C    0.272424
    36  C   -0.042348
    37  H    0.028662
    38  H    0.078998
    39  C   -0.652733
    40  H    0.205032
    41  C   -0.303618
    42  H    0.083863
    43  H    0.084292
    44  H    0.082839
    45  C   -0.468207
    46  H    0.138278
    47  H    0.127810
    48  C   -0.376295
    49  H    0.100002
    50  H    0.102291
    51  C    0.078808
    52  H    0.000941
    53  H   -0.010336
    54  C    0.537095
    55  H    0.042739
    56  C   -0.436317
    57  H    0.102475
    58  H    0.105290
    59  H    0.098978
    60  C   -0.007671
    61  H    0.027205
    62  H   -0.000214
    63  C   -0.310754
    64  H    0.074623
    65  H    0.068739
    66  C    0.485433
    67  H   -0.058594
    68  C   -0.418744
    69  H    0.100340
    70  H    0.087042
    71  H    0.087042
    72  C   -0.520306
    73  H    0.116088
    74  H    0.122150
    75  H    0.109233
 Sum of ESP charges =   0.00000

 Normal termination of Gaussian 09 at Thu May 18 12:55:36 2017.
