 Gaussian 09, Revision D.01,
 Gaussian 09:  EM64L-G09RevD.01 24-Apr-2013

 ----------------------------------------------------------------------
 #P HF/6-31G* SCF(Conver=6) NoSymm Test Pop=mk IOp(6/33=2) GFInput GFPr
 int
 ----------------------------------------------------------------------

 ----------------------------------------------
 MEP - Input generated by R.E.D.-III.x MOLECULE
 ----------------------------------------------
 Symbolic Z-matrix:
 Charge =  0 Multiplicity = 1

                          Input orientation:
 ---------------------------------------------------------------------
 Center     Atomic      Atomic             Coordinates (Angstroms)
 Number     Number       Type             X           Y           Z
 ---------------------------------------------------------------------
      1          8           0        6.120046    3.725345    0.000000
      2          1           0        5.852225    3.738456   -0.929739
      3          8           0        0.000000    0.000000    0.000000
      4          1           0       -0.112047   -0.163650   -0.947009
      5          6           0        8.829072    0.074764    0.411552
      6          6           0        7.903237    1.267027    0.792113
      7          1           0        7.682740    1.123934    1.864413
      8          6           0        6.531159    1.284820    0.094642
      9          1           0        6.670323    1.402151   -0.990184
     10          6           0        5.786002   -0.049309    0.377961
     11          1           0        5.576187   -0.047987    1.460323
     12          6           0       10.084349    0.409310    1.291655
     13          1           0        9.805455    0.152045    2.326093
     14          6           0        8.065485   -1.212822    0.780523
     15          1           0        7.937765   -1.244908    1.872268
     16          1           0        8.626845   -2.111778    0.507620
     17          6           0        4.384718   -0.138029   -0.321198
     18          6           0        8.818204    2.497762    0.699605
     19          1           0        8.449473    3.338217    1.292053
     20          1           0        8.877962    2.857770   -0.332977
     21          6           0        6.684130   -1.276504    0.101397
     22          1           0        6.829576   -1.393247   -0.978035
     23          1           0        6.175337   -2.186977    0.436991
     24          6           0       10.191244    1.969330    1.193751
     25          1           0       10.991586    2.254636    0.500228
     26          1           0       10.455979    2.403250    2.162825
     27          6           0        5.678391    2.477199    0.570399
     28          1           0        5.838708    2.621531    1.648329
     29          6           0       11.434678   -0.299005    1.006803
     30          1           0       11.764803    0.000000    0.000000
     31          6           0        9.206912    0.079078   -1.087570
     32          1           0        8.328784    0.057983   -1.738298
     33          1           0        9.788157    0.965150   -1.359205
     34          1           0        9.813750   -0.797609   -1.336860
     35          6           0        3.617043    1.172626   -0.117245
     36          6           0        3.567367   -1.289671    0.343737
     37          1           0        3.651557   -1.185001    1.434246
     38          1           0        4.021013   -2.253192    0.088545
     39          6           0        4.209072    2.297848    0.309237
     40          1           0        3.609024    3.193776    0.468397
     41          6           0        4.516951   -0.408563   -1.843942
     42          1           0        4.900896   -1.414733   -2.038300
     43          1           0        3.552175   -0.328394   -2.351539
     44          1           0        5.190895    0.311829   -2.317606
     45          6           0        2.128468    1.156577   -0.410123
     46          1           0        1.676660    2.112984   -0.129268
     47          1           0        1.963960    1.035054   -1.493098
     48          6           0        2.075640   -1.322945   -0.023158
     49          1           0        1.947332   -1.538721   -1.094304
     50          1           0        1.574471   -2.131278    0.521323
     51          6           0       12.514548    0.191474    2.003843
     52          1           0       12.499716    1.286927    2.042565
     53          1           0       12.237322   -0.152042    3.011099
     54          6           0        1.397941    0.008024    0.301311
     55          1           0        1.437758    0.177315    1.384278
     56          6           0       11.338730   -1.834634    1.037775
     57          1           0       10.939308   -2.183266    1.998674
     58          1           0       12.321600   -2.295187    0.900884
     59          1           0       10.693119   -2.224566    0.247886
     60          6           0       13.953110   -0.244035    1.676360
     61          1           0       14.059492   -1.330507    1.774277
     62          1           0       14.155341   -0.017162    0.619846
     63          6           0       15.030763    0.454952    2.525894
     64          1           0       14.960886    1.539128    2.355912
     65          1           0       16.021476    0.153183    2.154566
     66          6           0       14.988646    0.197762    4.047412
     67          1           0       14.005727    0.516466    4.423046
     68          6           0       16.051531    1.050413    4.758734
     69          1           0       17.060753    0.774154    4.426950
     70          1           0       16.010358    0.913471    5.845386
     71          1           0       15.913375    2.117458    4.549612
     72          6           0       15.167773   -1.288223    4.396727
     73          1           0       16.128128   -1.663816    4.019888
     74          1           0       15.155800   -1.439035    5.482213
     75          1           0       14.375638   -1.911709    3.969551
 ---------------------------------------------------------------------

 SCF Done:  E(RHF) =  -1198.92754035     A.U. after    9 cycles

 Alpha  occ. eigenvalues --  -20.55903 -20.55575 -11.28028 -11.27895 -11.24888
 Alpha  occ. eigenvalues --  -11.24099 -11.23190 -11.22928 -11.22903 -11.22759
 Alpha  occ. eigenvalues --  -11.22574 -11.22524 -11.22323 -11.22310 -11.22273
 Alpha  occ. eigenvalues --  -11.22253 -11.21976 -11.21941 -11.21676 -11.21581
 Alpha  occ. eigenvalues --  -11.21480 -11.21424 -11.21246 -11.21039 -11.20973
 Alpha  occ. eigenvalues --  -11.20970 -11.20948 -11.20854 -11.20438  -1.35276
 Alpha  occ. eigenvalues --   -1.34764  -1.16066  -1.13866  -1.09669  -1.08096
 Alpha  occ. eigenvalues --   -1.05924  -1.05704  -1.03063  -1.01699  -0.99516
 Alpha  occ. eigenvalues --   -0.97932  -0.96245  -0.92872  -0.92327  -0.92292
 Alpha  occ. eigenvalues --   -0.90938  -0.90584  -0.86187  -0.84026  -0.82816
 Alpha  occ. eigenvalues --   -0.82469  -0.79176  -0.78541  -0.77033  -0.74941
 Alpha  occ. eigenvalues --   -0.73977  -0.72083  -0.69942  -0.67254  -0.66473
 Alpha  occ. eigenvalues --   -0.64818  -0.64092  -0.63949  -0.63459  -0.62469
 Alpha  occ. eigenvalues --   -0.61561  -0.61309  -0.60760  -0.60418  -0.59193
 Alpha  occ. eigenvalues --   -0.58733  -0.58144  -0.57675  -0.56905  -0.56336
 Alpha  occ. eigenvalues --   -0.56183  -0.55854  -0.55264  -0.54823  -0.54288
 Alpha  occ. eigenvalues --   -0.54106  -0.53851  -0.53166  -0.53014  -0.52887
 Alpha  occ. eigenvalues --   -0.52483  -0.52157  -0.51006  -0.50177  -0.49819
 Alpha  occ. eigenvalues --   -0.49107  -0.48424  -0.48106  -0.47762  -0.47398
 Alpha  occ. eigenvalues --   -0.47002  -0.46673  -0.46165  -0.45900  -0.45446
 Alpha  occ. eigenvalues --   -0.45068  -0.44726  -0.44374  -0.43506  -0.43407
 Alpha  occ. eigenvalues --   -0.43271  -0.42540  -0.42507  -0.41612  -0.40383
 Alpha  occ. eigenvalues --   -0.38462  -0.34019
 Alpha virt. eigenvalues --    0.16202   0.20909   0.21250   0.22057   0.22319
 Alpha virt. eigenvalues --    0.22958   0.24132   0.24615   0.24926   0.25752
 Alpha virt. eigenvalues --    0.25882   0.26152   0.26866   0.26955   0.27542

 Mulliken charges:
               1
     1  O   -0.763764
     2  H    0.429046
     3  O   -0.758979
     4  H    0.428112
     5  C   -0.029834
     6  C   -0.167672
     7  H    0.150103
     8  C   -0.167141
     9  H    0.154383
    10  C   -0.166979
    11  H    0.159325
    12  C   -0.135430
    13  H    0.151480
    14  C   -0.297966
    15  H    0.152343
    16  H    0.164800
    17  C   -0.040688
    18  C   -0.298299
    19  H    0.183430
    20  H    0.159318
    21  C   -0.327540
    22  H    0.163650
    23  H    0.166890
    24  C   -0.339927
    25  H    0.158300
    26  H    0.166391
    27  C    0.184176
    28  H    0.176688
    29  C   -0.148796
    30  H    0.152182
    31  C   -0.487518
    32  H    0.159443
    33  H    0.167589
    34  H    0.162594
    35  C    0.074515
    36  C   -0.326078
    37  H    0.166485
    38  H    0.172978
    39  C   -0.290643
    40  H    0.193976
    41  C   -0.477565
    42  H    0.167261
    43  H    0.162528
    44  H    0.164601
    45  C   -0.366023
    46  H    0.193903
    47  H    0.152397
    48  C   -0.340753
    49  H    0.144102
    50  H    0.183663
    51  C   -0.311889
    52  H    0.166443
    53  H    0.150899
    54  C    0.193749
    55  H    0.174226
    56  C   -0.485711
    57  H    0.152189
    58  H    0.164456
    59  H    0.161151
    60  C   -0.312925
    61  H    0.158328
    62  H    0.154146
    63  C   -0.298419
    64  H    0.151864
    65  H    0.150471
    66  C   -0.151851
    67  H    0.157303
    68  C   -0.471920
    69  H    0.152047
    70  H    0.157911
    71  H    0.157982
    72  C   -0.476749
    73  H    0.151792
    74  H    0.158178
    75  H    0.161271
 Sum of Mulliken charges =   0.00000

 Dipole moment (field-independent basis, Debye):
    X=              0.4454    Y=             -1.7890    Z=             -1.9891  Tot=              2.7121
 Quadrupole moment (field-independent basis, Debye-Ang):
   XX=           -197.1240   YY=           -193.9341   ZZ=           -181.3049
   XY=            -10.9870   XZ=             -4.8381   YZ=             -2.9330

 ESP charges:
               1
     1  O   -0.793143
     2  H    0.449289
     3  O   -0.733572
     4  H    0.419871
     5  C    0.652717
     6  C    0.251916
     7  H   -0.037776
     8  C   -0.554120
     9  H    0.149660
    10  C   -0.252663
    11  H    0.092666
    12  C   -0.273949
    13  H    0.040726
    14  C   -0.232259
    15  H    0.021581
    16  H    0.031922
    17  C    0.176443
    18  C   -0.249885
    19  H    0.098878
    20  H    0.055117
    21  C    0.132636
    22  H   -0.000098
    23  H   -0.009993
    24  C   -0.132157
    25  H    0.063302
    26  H    0.057381
    27  C    0.789718
    28  H    0.004135
    29  C    0.135353
    30  H    0.014067
    31  C   -0.652891
    32  H    0.141544
    33  H    0.148224
    34  H    0.136141
    35  C    0.259570
    36  C   -0.061973
    37  H    0.024359
    38  H    0.075094
    39  C   -0.691812
    40  H    0.218893
    41  C   -0.343975
    42  H    0.089785
    43  H    0.083801
    44  H    0.098272
    45  C   -0.451419
    46  H    0.137586
    47  H    0.124854
    48  C   -0.341209
    49  H    0.091623
    50  H    0.094785
    51  C    0.072629
    52  H   -0.022015
    53  H    0.014177
    54  C    0.498705
    55  H    0.051862
    56  C   -0.431968
    57  H    0.096837
    58  H    0.096733
    59  H    0.105995
    60  C   -0.048000
    61  H    0.028781
    62  H    0.017262
    63  C   -0.233760
    64  H    0.055742
    65  H    0.051012
    66  C    0.490280
    67  H   -0.069836
    68  C   -0.491495
    69  H    0.106732
    70  H    0.114939
    71  H    0.096413
    72  C   -0.420545
    73  H    0.095054
    74  H    0.087745
    75  H    0.087709
 Sum of ESP charges =   0.00000

 Normal termination of Gaussian 09 at Thu May 18 12:31:28 2017.
