 Gaussian 09, Revision D.01,
 Gaussian 09:  EM64L-G09RevD.01 24-Apr-2013

 ----------------------------------------------------------------------
 #P HF/6-31G* SCF(Conver=6) NoSymm Test Pop=mk IOp(6/33=2) GFInput GFPr
 int
 ----------------------------------------------------------------------

 ----------------------------------------------
 MEP - Input generated by R.E.D.-III.x MOLECULE
 ----------------------------------------------
 Symbolic Z-matrix:
 Charge =  0 Multiplicity = 1

                          Input orientation:
 ---------------------------------------------------------------------
 Center     Atomic      Atomic             Coordinates (Angstroms)
 Number     Number       Type             X           Y           Z
 ---------------------------------------------------------------------
      1          8           0        0.000000    0.000000    0.000000
      2          1           0        0.967630    0.000000    0.000000
      3          8           0        1.624769   -2.790776    6.395312
      4          1           0        2.562193   -2.560890    6.462793
      5          6           0       -1.198422    4.093872    1.633905
      6          6           0       -1.280920    2.604246    1.183220
      7          1           0       -2.254080    2.245098    1.559706
      8          6           0       -0.236859    1.666965    1.815997
      9          1           0        0.772243    1.963566    1.494765
     10          6           0       -0.331194    1.751947    3.366249
     11          1           0       -1.314450    1.326550    3.626780
     12          6           0       -2.396902    4.670033    0.802759
     13          1           0       -3.286246    4.224342    1.268994
     14          6           0       -1.371735    4.113550    3.163778
     15          1           0       -2.383375    3.763842    3.413331
     16          1           0       -1.283620    5.131160    3.562257
     17          6           0        0.723215    0.852114    4.100840
     18          6           0       -1.409464    2.683292   -0.349717
     19          1           0       -1.874060    1.790107   -0.773644
     20          1           0       -0.421378    2.761468   -0.815525
     21          6           0       -0.335868    3.215667    3.866539
     22          1           0        0.658039    3.656516    3.735083
     23          1           0       -0.534210    3.233805    4.943876
     24          6           0       -2.247201    3.971433   -0.585693
     25          1           0       -1.753593    4.627207   -1.310244
     26          1           0       -3.235007    3.745569   -1.002685
     27          6           0       -0.443109    0.210781    1.355313
     28          1           0       -1.521389    0.003135    1.303567
     29          6           0       -2.730538    6.185923    0.687413
     30          1           0       -3.592304    6.205950    0.000000
     31          6           0        0.152856    4.736472    1.243015
     32          1           0        1.003688    4.135383    1.574582
     33          1           0        0.252188    4.864684    0.162368
     34          1           0        0.259872    5.722964    1.703434
     35          6           0        0.764245   -0.536861    3.454317
     36          6           0        0.284313    0.682359    5.589218
     37          1           0       -0.784846    0.429554    5.605080
     38          1           0        0.384607    1.640054    6.110707
     39          6           0        0.211121   -0.795202    2.260272
     40          1           0        0.240245   -1.809647    1.862627
     41          6           0        2.145324    1.471879    4.047004
     42          1           0        2.205782    2.383839    4.648844
     43          1           0        2.899885    0.781211    4.432369
     44          1           0        2.430801    1.720635    3.020275
     45          6           0        1.456267   -1.641835    4.230019
     46          1           0        1.330795   -2.600545    3.717342
     47          1           0        2.539828   -1.444893    4.271591
     48          6           0        1.046595   -0.398303    6.371679
     49          1           0        2.106823   -0.123142    6.474417
     50          1           0        0.643942   -0.478410    7.387793
     51          6           0       -3.220545    6.845861    1.998461
     52          1           0       -2.418322    6.824329    2.748076
     53          1           0       -3.394024    7.910374    1.784293
     54          6           0        0.949862   -1.755577    5.675618
     55          1           0       -0.098239   -2.078580    5.661242
     56          6           0       -1.657698    7.086713    0.042284
     57          1           0       -0.845326    7.320454    0.736602
     58          1           0       -2.109890    8.039063   -0.257193
     59          1           0       -1.214278    6.642295   -0.853358
     60          6           0       -4.509041    6.271152    2.607649
     61          1           0       -5.286264    6.247987    1.831604
     62          1           0       -4.348592    5.231970    2.915522
     63          6           0       -4.998214    7.092538    3.811891
     64          1           0       -5.153648    8.131862    3.488150
     65          1           0       -4.195146    7.127252    4.562489
     66          6           0       -6.290269    6.602397    4.506221
     67          1           0       -6.478071    7.310408    5.327026
     68          6           0       -6.132667    5.210107    5.139837
     69          1           0       -6.003422    4.431554    4.379140
     70          1           0       -7.019278    4.946990    5.727989
     71          1           0       -5.264901    5.172014    5.808939
     72          6           0       -7.515981    6.651237    3.578890
     73          1           0       -7.435049    5.923712    2.763040
     74          1           0       -8.433197    6.420075    4.132501
     75          1           0       -7.638013    7.644333    3.130606
 ---------------------------------------------------------------------

 SCF Done:  E(RHF) =  -1198.92127110     A.U. after    9 cycles

 Alpha  occ. eigenvalues --  -20.55902 -20.55571 -11.28027 -11.27890 -11.24902
 Alpha  occ. eigenvalues --  -11.24097 -11.23238 -11.22925 -11.22910 -11.22749
 Alpha  occ. eigenvalues --  -11.22577 -11.22573 -11.22532 -11.22455 -11.22274
 Alpha  occ. eigenvalues --  -11.22250 -11.22015 -11.21871 -11.21685 -11.21681
 Alpha  occ. eigenvalues --  -11.21561 -11.21442 -11.21385 -11.21114 -11.21046
 Alpha  occ. eigenvalues --  -11.20899 -11.20890 -11.20797 -11.20493  -1.35275
 Alpha  occ. eigenvalues --   -1.34765  -1.16060  -1.13828  -1.09563  -1.08079
 Alpha  occ. eigenvalues --   -1.05932  -1.05730  -1.03077  -1.01704  -0.99691
 Alpha  occ. eigenvalues --   -0.97884  -0.96300  -0.92562  -0.92440  -0.92362
 Alpha  occ. eigenvalues --   -0.91514  -0.90382  -0.86185  -0.83875  -0.83050
 Alpha  occ. eigenvalues --   -0.82744  -0.79277  -0.78689  -0.76911  -0.74511
 Alpha  occ. eigenvalues --   -0.74156  -0.71647  -0.69910  -0.67243  -0.66184
 Alpha  occ. eigenvalues --   -0.64616  -0.64153  -0.63815  -0.63360  -0.62621
 Alpha  occ. eigenvalues --   -0.62451  -0.61255  -0.60695  -0.59824  -0.59350
 Alpha  occ. eigenvalues --   -0.59076  -0.58418  -0.57636  -0.57430  -0.56315
 Alpha  occ. eigenvalues --   -0.56047  -0.55669  -0.55452  -0.55113  -0.54358
 Alpha  occ. eigenvalues --   -0.54206  -0.53806  -0.53433  -0.52889  -0.52641
 Alpha  occ. eigenvalues --   -0.52179  -0.51566  -0.50702  -0.50392  -0.50196
 Alpha  occ. eigenvalues --   -0.49062  -0.48603  -0.48304  -0.47701  -0.47622
 Alpha  occ. eigenvalues --   -0.47110  -0.46663  -0.46291  -0.46081  -0.45251
 Alpha  occ. eigenvalues --   -0.45106  -0.44961  -0.44511  -0.44073  -0.43390
 Alpha  occ. eigenvalues --   -0.42670  -0.42495  -0.41884  -0.41555  -0.40319
 Alpha  occ. eigenvalues --   -0.38469  -0.34016
 Alpha virt. eigenvalues --    0.16203   0.20309   0.20936   0.21962   0.22274
 Alpha virt. eigenvalues --    0.22593   0.23988   0.24189   0.24859   0.24923
 Alpha virt. eigenvalues --    0.25485   0.26246   0.26543   0.27359   0.27701

 Mulliken charges:
               1
     1  O   -0.763682
     2  H    0.429112
     3  O   -0.758952
     4  H    0.428113
     5  C   -0.022679
     6  C   -0.169992
     7  H    0.149780
     8  C   -0.167738
     9  H    0.154149
    10  C   -0.167000
    11  H    0.159174
    12  C   -0.155751
    13  H    0.159437
    14  C   -0.301766
    15  H    0.153625
    16  H    0.162341
    17  C   -0.040757
    18  C   -0.297763
    19  H    0.183100
    20  H    0.159452
    21  C   -0.327438
    22  H    0.165228
    23  H    0.166799
    24  C   -0.332345
    25  H    0.159137
    26  H    0.162845
    27  C    0.185228
    28  H    0.176527
    29  C   -0.141435
    30  H    0.152492
    31  C   -0.485060
    32  H    0.158643
    33  H    0.168749
    34  H    0.160813
    35  C    0.074593
    36  C   -0.326058
    37  H    0.166540
    38  H    0.172875
    39  C   -0.290903
    40  H    0.194045
    41  C   -0.477512
    42  H    0.167288
    43  H    0.162540
    44  H    0.164717
    45  C   -0.366048
    46  H    0.193909
    47  H    0.152415
    48  C   -0.340739
    49  H    0.144105
    50  H    0.183681
    51  C   -0.300278
    52  H    0.152272
    53  H    0.152661
    54  C    0.193718
    55  H    0.174254
    56  C   -0.482686
    57  H    0.155838
    58  H    0.158092
    59  H    0.161205
    60  C   -0.319107
    61  H    0.154875
    62  H    0.161653
    63  C   -0.300592
    64  H    0.151693
    65  H    0.150374
    66  C   -0.146313
    67  H    0.155458
    68  C   -0.476325
    69  H    0.154825
    70  H    0.159024
    71  H    0.155961
    72  C   -0.476280
    73  H    0.156421
    74  H    0.158382
    75  H    0.157041
 Sum of Mulliken charges =   0.00000

 Dipole moment (field-independent basis, Debye):
    X=              1.6104    Y=              1.9473    Z=              1.0389  Tot=              2.7321
 Quadrupole moment (field-independent basis, Debye-Ang):
   XX=           -178.1651   YY=           -192.9795   ZZ=           -189.8638
   XY=             -0.8141   XZ=              3.9765   YZ=             13.0018

 ESP charges:
               1
     1  O   -0.787989
     2  H    0.449185
     3  O   -0.740687
     4  H    0.421068
     5  C    0.815445
     6  C    0.149802
     7  H   -0.036224
     8  C   -0.512733
     9  H    0.134464
    10  C   -0.249350
    11  H    0.083434
    12  C   -0.132407
    13  H   -0.019354
    14  C   -0.222816
    15  H    0.071726
    16  H    0.042924
    17  C    0.350414
    18  C   -0.097040
    19  H    0.068992
    20  H    0.019196
    21  C   -0.148407
    22  H    0.067461
    23  H    0.053680
    24  C   -0.269099
    25  H    0.076564
    26  H    0.071010
    27  C    0.741164
    28  H    0.010097
    29  C    0.243523
    30  H    0.006287
    31  C   -0.713560
    32  H    0.150491
    33  H    0.158114
    34  H    0.135318
    35  C    0.176890
    36  C   -0.082882
    37  H    0.025441
    38  H    0.078033
    39  C   -0.639290
    40  H    0.210573
    41  C   -0.321950
    42  H    0.073360
    43  H    0.070155
    44  H    0.084799
    45  C   -0.457698
    46  H    0.139946
    47  H    0.124632
    48  C   -0.394738
    49  H    0.098108
    50  H    0.110254
    51  C   -0.342281
    52  H    0.060047
    53  H    0.091947
    54  C    0.536268
    55  H    0.042589
    56  C   -0.454484
    57  H    0.099669
    58  H    0.104486
    59  H    0.107877
    60  C    0.284091
    61  H   -0.020830
    62  H   -0.079438
    63  C   -0.383493
    64  H    0.068721
    65  H    0.072700
    66  C    0.484316
    67  H   -0.047364
    68  C   -0.486891
    69  H    0.117075
    70  H    0.108010
    71  H    0.104761
    72  C   -0.457322
    73  H    0.104201
    74  H    0.099674
    75  H    0.099345
 Sum of ESP charges =   0.00000

 Normal termination of Gaussian 09 at Thu May 18 13:10:36 2017.
