 Gaussian 09, Revision D.01,
 Gaussian 09:  EM64L-G09RevD.01 24-Apr-2013

 ----------------------------------------------------------------------
 #P HF/6-31G* SCF(Conver=6) NoSymm Test Pop=mk IOp(6/33=2) GFInput GFPr
 int
 ----------------------------------------------------------------------

 ----------------------------------------------
 MEP - Input generated by R.E.D.-III.x MOLECULE
 ----------------------------------------------
 Symbolic Z-matrix:
 Charge =  0 Multiplicity = 1

                          Input orientation:
 ---------------------------------------------------------------------
 Center     Atomic      Atomic             Coordinates (Angstroms)
 Number     Number       Type             X           Y           Z
 ---------------------------------------------------------------------
      1          8           0        0.000000    0.000000    0.000000
      2          1           0       -0.229632    0.136987    0.929948
      3          8           0       -3.054229    6.480612    0.000000
      4          1           0       -3.055420    6.680769    0.946621
      5          6           0        4.271945    1.553630   -0.415233
      6          6           0        2.842359    1.067534   -0.793828
      7          1           0        2.736328    1.305693   -1.866664
      8          6           0        1.687933    1.810059   -0.097038
      9          1           0        1.739899    1.637041    0.988021
     10          6           0        1.800907    3.333544   -0.382727
     11          1           0        1.623079    3.446654   -1.464918
     12          6           0        5.135255    0.580874   -1.292980
     13          1           0        5.044046    0.946322   -2.328410
     14          6           0        4.343730    3.047981   -0.787893
     15          1           0        4.253366    3.142505   -1.879757
     16          1           0        5.307863    3.489409   -0.517229
     17          6           0        0.681539    4.180515    0.317455
     18          6           0        2.928368   -0.463409   -0.697279
     19          1           0        2.157516   -0.963382   -1.288148
     20          1           0        2.780168   -0.794035    0.336222
     21          6           0        3.226870    3.863604   -0.109271
     22          1           0        3.413963    3.883214    0.969853
     23          1           0        3.303413    4.903028   -0.447267
     24          6           0        4.365310   -0.779862   -1.191067
     25          1           0        4.876659   -1.456927   -0.496045
     26          1           0        4.346466   -1.290322   -2.158775
     27          6           0        0.318870    1.284609   -0.571269
     28          1           0        0.372181    1.075283   -1.649145
     29          6           0        6.652628    0.430191   -1.007323
     30          1           0        6.762630    0.000000    0.000000
     31          6           0        4.584957    1.345735    1.084522
     32          1           0        3.861953    1.846320    1.733925
     33          1           0        4.584813    0.286616    1.358460
     34          1           0        5.573122    1.746309    1.333386
     35          6           0       -0.681585    3.509448    0.116650
     36          6           0        0.632774    5.590945   -0.349401
     37          1           0        0.643509    5.455684   -1.439767
     38          1           0        1.542638    6.145409   -0.096547
     39          6           0       -0.808100    2.244107   -0.309282
     40          1           0       -1.802728    1.826997   -0.466822
     41          6           0        0.943985    4.335218    1.839550
     42          1           0        1.818372    4.964649    2.031554
     43          1           0        0.095330    4.799186    2.348911
     44          1           0        1.111995    3.363311    2.313596
     45          6           0       -1.914563    4.343109    0.410701
     46          1           0       -2.818962    3.793507    0.131920
     47          1           0       -1.983260    4.536337    1.493568
     48          6           0       -0.593118    6.441000    0.018569
     49          1           0       -0.579343    6.693066    1.089390
     50          1           0       -0.567085    7.391018   -0.527167
     51          6           0        7.286321   -0.573231   -2.003287
     52          1           0        6.653927   -1.465557   -2.070905
     53          1           0        7.282916   -0.122403   -3.007797
     54          6           0       -1.892616    5.703234   -0.302437
     55          1           0       -1.954717    5.538479   -1.385038
     56          6           0        7.415753    1.766402   -1.039649
     57          1           0        7.263513    2.281198   -1.996751
     58          1           0        8.491575    1.611130   -0.915464
     59          1           0        7.099216    2.443451   -0.243162
     60          6           0        8.711700   -1.036624   -1.659047
     61          1           0        9.397695   -0.182048   -1.658538
     62          1           0        8.714492   -1.437428   -0.636202
     63          6           0        9.226283   -2.103681   -2.639203
     64          1           0        9.180883   -1.694093   -3.658800
     65          1           0        8.533074   -2.957152   -2.625587
     66          6           0       10.657247   -2.637138   -2.394779
     67          1           0       10.837753   -3.385167   -3.181020
     68          6           0       10.797822   -3.359248   -1.044476
     69          1           0       10.694092   -2.665523   -0.202176
     70          1           0       11.781704   -3.834203   -0.956845
     71          1           0       10.038065   -4.141285   -0.929155
     72          6           0       11.731976   -1.548787   -2.553719
     73          1           0       11.661364   -0.791673   -1.764234
     74          1           0       12.736978   -1.982797   -2.500107
     75          1           0       11.640918   -1.035813   -3.518433
 ---------------------------------------------------------------------

 SCF Done:  E(RHF) =  -1198.92738719     A.U. after    9 cycles

 Alpha  occ. eigenvalues --  -20.55895 -20.55562 -11.28018 -11.27882 -11.24877
 Alpha  occ. eigenvalues --  -11.24087 -11.23177 -11.22918 -11.22892 -11.22736
 Alpha  occ. eigenvalues --  -11.22566 -11.22510 -11.22459 -11.22277 -11.22264
 Alpha  occ. eigenvalues --  -11.22241 -11.21959 -11.21918 -11.21656 -11.21558
 Alpha  occ. eigenvalues --  -11.21439 -11.21340 -11.21240 -11.21023 -11.20982
 Alpha  occ. eigenvalues --  -11.20961 -11.20949 -11.20824 -11.20418  -1.35267
 Alpha  occ. eigenvalues --   -1.34752  -1.16050  -1.13847  -1.09581  -1.08075
 Alpha  occ. eigenvalues --   -1.05922  -1.05715  -1.03047  -1.01702  -0.99501
 Alpha  occ. eigenvalues --   -0.97910  -0.96230  -0.92847  -0.92334  -0.92273
 Alpha  occ. eigenvalues --   -0.90888  -0.90572  -0.86174  -0.84298  -0.82807
 Alpha  occ. eigenvalues --   -0.82664  -0.78964  -0.78346  -0.76974  -0.74621
 Alpha  occ. eigenvalues --   -0.74067  -0.72004  -0.69934  -0.67248  -0.66463
 Alpha  occ. eigenvalues --   -0.64655  -0.64035  -0.63808  -0.63346  -0.62503
 Alpha  occ. eigenvalues --   -0.62255  -0.61219  -0.60746  -0.60233  -0.59252
 Alpha  occ. eigenvalues --   -0.58665  -0.58399  -0.57915  -0.57497  -0.56314
 Alpha  occ. eigenvalues --   -0.56062  -0.55575  -0.55439  -0.54795  -0.54504
 Alpha  occ. eigenvalues --   -0.54136  -0.53336  -0.53158  -0.52847  -0.52495
 Alpha  occ. eigenvalues --   -0.52205  -0.51539  -0.50895  -0.50778  -0.50611
 Alpha  occ. eigenvalues --   -0.48619  -0.48288  -0.48097  -0.48010  -0.47152
 Alpha  occ. eigenvalues --   -0.46977  -0.46495  -0.46013  -0.45922  -0.45376
 Alpha  occ. eigenvalues --   -0.44973  -0.44823  -0.44534  -0.43955  -0.43431
 Alpha  occ. eigenvalues --   -0.43306  -0.42508  -0.42346  -0.41517  -0.40347
 Alpha  occ. eigenvalues --   -0.38405  -0.34007
 Alpha virt. eigenvalues --    0.16215   0.20936   0.21338   0.21975   0.22309
 Alpha virt. eigenvalues --    0.22807   0.24239   0.24650   0.24949   0.25768
 Alpha virt. eigenvalues --    0.25826   0.26198   0.26646   0.26803   0.27539

 Mulliken charges:
               1
     1  O   -0.763774
     2  H    0.429033
     3  O   -0.758995
     4  H    0.428102
     5  C   -0.029777
     6  C   -0.167541
     7  H    0.150149
     8  C   -0.167313
     9  H    0.154323
    10  C   -0.166995
    11  H    0.159346
    12  C   -0.135695
    13  H    0.151759
    14  C   -0.297910
    15  H    0.152318
    16  H    0.164893
    17  C   -0.040624
    18  C   -0.298277
    19  H    0.183479
    20  H    0.159151
    21  C   -0.327568
    22  H    0.163658
    23  H    0.166844
    24  C   -0.340156
    25  H    0.158155
    26  H    0.166738
    27  C    0.184286
    28  H    0.176688
    29  C   -0.148723
    30  H    0.152103
    31  C   -0.487613
    32  H    0.159401
    33  H    0.167567
    34  H    0.162541
    35  C    0.074487
    36  C   -0.326050
    37  H    0.166487
    38  H    0.172985
    39  C   -0.290616
    40  H    0.193944
    41  C   -0.477662
    42  H    0.167244
    43  H    0.162514
    44  H    0.164628
    45  C   -0.365968
    46  H    0.193881
    47  H    0.152376
    48  C   -0.340749
    49  H    0.144073
    50  H    0.183639
    51  C   -0.307655
    52  H    0.167120
    53  H    0.147329
    54  C    0.193728
    55  H    0.174217
    56  C   -0.485018
    57  H    0.152767
    58  H    0.163419
    59  H    0.160736
    60  C   -0.314643
    61  H    0.158753
    62  H    0.153971
    63  C   -0.300869
    64  H    0.151581
    65  H    0.151787
    66  C   -0.146360
    67  H    0.155476
    68  C   -0.476154
    69  H    0.155885
    70  H    0.158016
    71  H    0.156996
    72  C   -0.476222
    73  H    0.155208
    74  H    0.158315
    75  H    0.156833
 Sum of Mulliken charges =   0.00000

 Dipole moment (field-independent basis, Debye):
    X=              1.4460    Y=              1.1735    Z=              1.8988  Tot=              2.6596
 Quadrupole moment (field-independent basis, Debye-Ang):
   XX=           -193.2162   YY=           -188.1557   ZZ=           -180.9140
   XY=              9.8754   XZ=             -5.1516   YZ=              8.4636

 ESP charges:
               1
     1  O   -0.794564
     2  H    0.448602
     3  O   -0.736907
     4  H    0.418404
     5  C    0.622658
     6  C    0.212709
     7  H   -0.027980
     8  C   -0.540469
     9  H    0.153581
    10  C   -0.323733
    11  H    0.110423
    12  C   -0.120161
    13  H    0.007709
    14  C   -0.255446
    15  H    0.025525
    16  H    0.027944
    17  C    0.163114
    18  C   -0.257762
    19  H    0.103248
    20  H    0.059963
    21  C    0.196853
    22  H   -0.005266
    23  H   -0.019385
    24  C   -0.142103
    25  H    0.060240
    26  H    0.051891
    27  C    0.792050
    28  H    0.003062
    29  C    0.133845
    30  H    0.004925
    31  C   -0.649853
    32  H    0.143130
    33  H    0.144413
    34  H    0.135833
    35  C    0.255928
    36  C   -0.086788
    37  H    0.035524
    38  H    0.082533
    39  C   -0.660808
    40  H    0.208372
    41  C   -0.336685
    42  H    0.089999
    43  H    0.085787
    44  H    0.097952
    45  C   -0.457903
    46  H    0.137317
    47  H    0.126252
    48  C   -0.338735
    49  H    0.092774
    50  H    0.094746
    51  C   -0.114399
    52  H    0.018668
    53  H    0.042024
    54  C    0.516990
    55  H    0.047312
    56  C   -0.458462
    57  H    0.107614
    58  H    0.098803
    59  H    0.113655
    60  C    0.193142
    61  H    0.002861
    62  H   -0.023082
    63  C   -0.363436
    64  H    0.060435
    65  H    0.071425
    66  C    0.457771
    67  H   -0.047114
    68  C   -0.439045
    69  H    0.097748
    70  H    0.095518
    71  H    0.097250
    72  C   -0.431887
    73  H    0.093494
    74  H    0.094584
    75  H    0.095371
 Sum of ESP charges =   0.00000

 Normal termination of Gaussian 09 at Thu May 18 13:39:42 2017.
