 Gaussian 09, Revision D.01,
 Gaussian 09:  EM64L-G09RevD.01 24-Apr-2013

 ----------------------------------------------------------------------
 #P HF/6-31G* SCF(Conver=6) NoSymm Test Pop=mk IOp(6/33=2) GFInput GFPr
 int
 ----------------------------------------------------------------------

 ----------------------------------------------
 MEP - Input generated by R.E.D.-III.x MOLECULE
 ----------------------------------------------
 Symbolic Z-matrix:
 Charge =  0 Multiplicity = 1

                          Input orientation:
 ---------------------------------------------------------------------
 Center     Atomic      Atomic             Coordinates (Angstroms)
 Number     Number       Type             X           Y           Z
 ---------------------------------------------------------------------
      1          8           0        0.000000    0.000000    0.000000
      2          1           0       -0.225720    0.139850    0.930487
      3          8           0       -2.975008    6.518200    0.000000
      4          1           0       -2.970854    6.720468    0.946167
      5          6           0        4.287939    1.502641   -0.425131
      6          6           0        2.852638    1.031978   -0.800127
      7          1           0        2.747224    1.271859   -1.872536
      8          6           0        1.709173    1.789482   -0.101784
      9          1           0        1.761342    1.617712    0.983501
     10          6           0        1.840389    3.311221   -0.390745
     11          1           0        1.660586    3.424069   -1.472632
     12          6           0        5.133915    0.516895   -1.303470
     13          1           0        5.021861    0.873577   -2.338141
     14          6           0        4.379198    2.994293   -0.801560
     15          1           0        4.289214    3.088257   -1.893489
     16          1           0        5.350131    3.421998   -0.531829
     17          6           0        0.733328    4.172991    0.311003
     18          6           0        2.919984   -0.501245   -0.704543
     19          1           0        2.152741   -0.989779   -1.309645
     20          1           0        2.749512   -0.832457    0.325258
     21          6           0        3.273550    3.825624   -0.123175
     22          1           0        3.463826    3.847447    0.955289
     23          1           0        3.361016    4.862732   -0.465547
     24          6           0        4.362391   -0.836821   -1.172383
     25          1           0        4.861506   -1.490902   -0.447503
     26          1           0        4.361546   -1.379192   -2.123436
     27          6           0        0.332659    1.280573   -0.572283
     28          1           0        0.380737    1.070525   -1.650281
     29          6           0        6.651374    0.363887   -1.031872
     30          1           0        6.763545    0.000000    0.000000
     31          6           0        4.604068    1.297531    1.073918
     32          1           0        3.892926    1.814032    1.723938
     33          1           0        4.587722    0.240243    1.354415
     34          1           0        5.600073    1.684124    1.314874
     35          6           0       -0.638559    3.518409    0.114911
     36          6           0        0.700076    5.583122   -0.357368
     37          1           0        0.706781    5.446476   -1.447585
     38          1           0        1.617020    6.126955   -0.107092
     39          6           0       -0.781860    2.253834   -0.307990
     40          1           0       -1.781970    1.848618   -0.461814
     41          6           0        1.001271    4.326523    1.832237
     42          1           0        1.884381    4.944533    2.021304
     43          1           0        0.159883    4.802560    2.342490
     44          1           0        1.157151    3.353219    2.307522
     45          6           0       -1.860323    4.367682    0.411224
     46          1           0       -2.772264    3.828791    0.136132
     47          1           0       -1.923237    4.563648    1.493934
     48          6           0       -0.514556    6.448567    0.012201
     49          1           0       -0.495089    6.702436    1.082551
     50          1           0       -0.478252    7.397260   -0.535256
     51          6           0        7.299673   -0.726319   -1.926964
     52          1           0        8.344796   -0.840274   -1.604889
     53          1           0        6.820654   -1.692930   -1.727454
     54          6           0       -1.823775    5.726231   -0.304281
     55          1           0       -1.890777    5.560611   -1.386469
     56          6           0        7.440766    1.682359   -1.138877
     57          1           0        7.245950    2.200750   -2.084406
     58          1           0        8.518568    1.488338   -1.083436
     59          1           0        7.194829    2.373969   -0.329069
     60          6           0        7.283490   -0.473302   -3.443929
     61          1           0        6.247056   -0.390188   -3.793139
     62          1           0        7.762555    0.488632   -3.662803
     63          6           0        7.998507   -1.592678   -4.218647
     64          1           0        7.518833   -2.551371   -3.973272
     65          1           0        9.031793   -1.669380   -3.850059
     66          6           0        8.042034   -1.452385   -5.758231
     67          1           0        8.588157   -2.333970   -6.125479
     68          6           0        8.826127   -0.212309   -6.218865
     69          1           0        8.311296    0.716159   -5.946063
     70          1           0        8.947276   -0.210094   -7.308178
     71          1           0        9.826760   -0.183781   -5.771582
     72          6           0        6.643846   -1.490261   -6.397241
     73          1           0        6.052673   -0.606761   -6.129880
     74          1           0        6.715479   -1.515907   -7.490628
     75          1           0        6.083159   -2.376904   -6.078567
 ---------------------------------------------------------------------

 SCF Done:  E(RHF) =  -1198.92703891     A.U. after    9 cycles

 Alpha  occ. eigenvalues --  -20.55898 -20.55568 -11.28022 -11.27886 -11.24886
 Alpha  occ. eigenvalues --  -11.24092 -11.23194 -11.22921 -11.22898 -11.22714
 Alpha  occ. eigenvalues --  -11.22572 -11.22520 -11.22430 -11.22267 -11.22265
 Alpha  occ. eigenvalues --  -11.22245 -11.21974 -11.21816 -11.21665 -11.21577
 Alpha  occ. eigenvalues --  -11.21406 -11.21306 -11.21234 -11.21034 -11.20958
 Alpha  occ. eigenvalues --  -11.20955 -11.20942 -11.20897 -11.20456  -1.35271
 Alpha  occ. eigenvalues --   -1.34758  -1.16063  -1.13872  -1.09563  -1.08035
 Alpha  occ. eigenvalues --   -1.05918  -1.05671  -1.03053  -1.01653  -0.99473
 Alpha  occ. eigenvalues --   -0.97889  -0.96256  -0.92855  -0.92311  -0.92256
 Alpha  occ. eigenvalues --   -0.90868  -0.90610  -0.86181  -0.84458  -0.83023
 Alpha  occ. eigenvalues --   -0.82803  -0.79049  -0.78437  -0.76922  -0.74603
 Alpha  occ. eigenvalues --   -0.73537  -0.71642  -0.69957  -0.67273  -0.66490
 Alpha  occ. eigenvalues --   -0.64537  -0.63941  -0.63919  -0.63292  -0.62654
 Alpha  occ. eigenvalues --   -0.62076  -0.61127  -0.60958  -0.60625  -0.59113
 Alpha  occ. eigenvalues --   -0.58754  -0.58470  -0.57684  -0.57196  -0.56451
 Alpha  occ. eigenvalues --   -0.56085  -0.55490  -0.55465  -0.54554  -0.54475
 Alpha  occ. eigenvalues --   -0.54158  -0.53448  -0.53291  -0.52762  -0.52715
 Alpha  occ. eigenvalues --   -0.52256  -0.51706  -0.51406  -0.50888  -0.50222
 Alpha  occ. eigenvalues --   -0.48591  -0.48430  -0.48224  -0.47838  -0.47291
 Alpha  occ. eigenvalues --   -0.46952  -0.46719  -0.46255  -0.45892  -0.45205
 Alpha  occ. eigenvalues --   -0.44993  -0.44776  -0.44484  -0.43482  -0.43425
 Alpha  occ. eigenvalues --   -0.42882  -0.42555  -0.42313  -0.41567  -0.40360
 Alpha  occ. eigenvalues --   -0.38516  -0.34011
 Alpha virt. eigenvalues --    0.16207   0.20734   0.21076   0.22092   0.22236
 Alpha virt. eigenvalues --    0.22857   0.24074   0.24275   0.24800   0.25472
 Alpha virt. eigenvalues --    0.25756   0.26309   0.26619   0.27129   0.27479

 Mulliken charges:
               1
     1  O   -0.763720
     2  H    0.429026
     3  O   -0.758990
     4  H    0.428107
     5  C   -0.028211
     6  C   -0.167282
     7  H    0.149799
     8  C   -0.167238
     9  H    0.154345
    10  C   -0.167026
    11  H    0.159292
    12  C   -0.141362
    13  H    0.155811
    14  C   -0.297792
    15  H    0.152030
    16  H    0.164713
    17  C   -0.040621
    18  C   -0.298041
    19  H    0.182471
    20  H    0.159992
    21  C   -0.327687
    22  H    0.163760
    23  H    0.166899
    24  C   -0.339507
    25  H    0.159063
    26  H    0.165538
    27  C    0.184438
    28  H    0.176636
    29  C   -0.147171
    30  H    0.156548
    31  C   -0.488375
    32  H    0.159762
    33  H    0.167630
    34  H    0.162122
    35  C    0.074456
    36  C   -0.326048
    37  H    0.166479
    38  H    0.172998
    39  C   -0.290776
    40  H    0.193973
    41  C   -0.477616
    42  H    0.167227
    43  H    0.162532
    44  H    0.164665
    45  C   -0.365959
    46  H    0.193898
    47  H    0.152400
    48  C   -0.340796
    49  H    0.144064
    50  H    0.183654
    51  C   -0.309166
    52  H    0.152019
    53  H    0.161995
    54  C    0.193739
    55  H    0.174229
    56  C   -0.486149
    57  H    0.156720
    58  H    0.157583
    59  H    0.160583
    60  C   -0.321503
    61  H    0.159676
    62  H    0.160050
    63  C   -0.300157
    64  H    0.151655
    65  H    0.150930
    66  C   -0.146083
    67  H    0.155288
    68  C   -0.476052
    69  H    0.155321
    70  H    0.158131
    71  H    0.156638
    72  C   -0.476219
    73  H    0.155053
    74  H    0.158267
    75  H    0.157342
 Sum of Mulliken charges =   0.00000

 Dipole moment (field-independent basis, Debye):
    X=              1.5044    Y=              1.1608    Z=              1.9729  Tot=              2.7392
 Quadrupole moment (field-independent basis, Debye-Ang):
   XX=           -191.9372   YY=           -188.4454   ZZ=           -181.5245
   XY=              9.8333   XZ=             -4.3830   YZ=              8.6347

 ESP charges:
               1
     1  O   -0.791710
     2  H    0.448079
     3  O   -0.741480
     4  H    0.418624
     5  C    0.601570
     6  C    0.225481
     7  H   -0.020657
     8  C   -0.569308
     9  H    0.161768
    10  C   -0.319815
    11  H    0.110855
    12  C    0.023719
    13  H   -0.064155
    14  C   -0.256396
    15  H    0.031962
    16  H    0.035541
    17  C    0.166443
    18  C   -0.338238
    19  H    0.114757
    20  H    0.082059
    21  C    0.162949
    22  H    0.003021
    23  H   -0.012129
    24  C   -0.082419
    25  H    0.036322
    26  H    0.041985
    27  C    0.801366
    28  H    0.002315
    29  C    0.096189
    30  H    0.020575
    31  C   -0.643188
    32  H    0.146965
    33  H    0.133171
    34  H    0.129574
    35  C    0.265576
    36  C   -0.096499
    37  H    0.041874
    38  H    0.089469
    39  C   -0.664871
    40  H    0.207945
    41  C   -0.338472
    42  H    0.092464
    43  H    0.086268
    44  H    0.097940
    45  C   -0.465244
    46  H    0.136690
    47  H    0.126717
    48  C   -0.378635
    49  H    0.102030
    50  H    0.105519
    51  C   -0.230860
    52  H    0.057928
    53  H    0.027613
    54  C    0.545992
    55  H    0.041623
    56  C   -0.410347
    57  H    0.080789
    58  H    0.106771
    59  H    0.094534
    60  C    0.308020
    61  H   -0.020457
    62  H   -0.022878
    63  C   -0.365718
    64  H    0.066433
    65  H    0.060840
    66  C    0.431098
    67  H   -0.041344
    68  C   -0.417418
    69  H    0.087456
    70  H    0.093362
    71  H    0.090852
    72  C   -0.431584
    73  H    0.091470
    74  H    0.098175
    75  H    0.093088
 Sum of ESP charges =   0.00000

 Normal termination of Gaussian 09 at Thu May 18 13:28:38 2017.
