 Gaussian 09, Revision D.01,
 Gaussian 09:  EM64L-G09RevD.01 24-Apr-2013

 ----------------------------------------------------------------------
 #P HF/6-31G* SCF(Conver=6) NoSymm Test Pop=mk IOp(6/33=2) GFInput GFPr
 int
 ----------------------------------------------------------------------

 ----------------------------------------------
 MEP - Input generated by R.E.D.-III.x MOLECULE
 ----------------------------------------------
 Symbolic Z-matrix:
 Charge =  0 Multiplicity = 1

                          Input orientation:
 ---------------------------------------------------------------------
 Center     Atomic      Atomic             Coordinates (Angstroms)
 Number     Number       Type             X           Y           Z
 ---------------------------------------------------------------------
      1          8           0        6.122717    3.720083    0.000000
      2          1           0        5.855136    3.732514   -0.929809
      3          8           0        0.000000    0.000000    0.000000
      4          1           0       -0.110898   -0.166837   -0.946587
      5          6           0        8.827343    0.067339    0.419930
      6          6           0        7.904316    1.262997    0.795360
      7          1           0        7.684578    1.126831    1.868754
      8          6           0        6.531837    1.279352    0.098517
      9          1           0        6.670776    1.394386   -0.986555
     10          6           0        5.785829   -0.053772    0.384825
     11          1           0        5.575196   -0.049487    1.467016
     12          6           0       10.082844    0.401253    1.298847
     13          1           0        9.806057    0.145081    2.334173
     14          6           0        8.063206   -1.218604    0.792363
     15          1           0        7.934088   -1.246986    1.884069
     16          1           0        8.625848   -2.118001    0.522994
     17          6           0        4.385098   -0.143101   -0.315459
     18          6           0        8.823173    2.490430    0.694037
     19          1           0        8.455299    3.337908    1.276867
     20          1           0        8.887382    2.839751   -0.341974
     21          6           0        6.682647   -1.283037    0.112045
     22          1           0        6.829028   -1.402579   -0.966922
     23          1           0        6.172303   -2.191976    0.449441
     24          6           0       10.192515    1.961818    1.198671
     25          1           0       11.000215    2.245964    0.513543
     26          1           0       10.446349    2.398916    2.169154
     27          6           0        5.679575    2.473073    0.571764
     28          1           0        5.839088    2.618797    1.649632
     29          6           0       11.431545   -0.305920    1.007848
     30          1           0       11.749113    0.000000    0.000000
     31          6           0        9.204041    0.066844   -1.079887
     32          1           0        8.324947    0.053748   -1.729496
     33          1           0        9.793207    0.947040   -1.353446
     34          1           0        9.801836   -0.815754   -1.329474
     35          6           0        3.618191    1.168756   -0.115835
     36          6           0        3.565856   -1.291967    0.351959
     37          1           0        3.649039   -1.184200    1.442256
     38          1           0        4.018717   -2.256686    0.100111
     39          6           0        4.210436    2.294358    0.309350
     40          1           0        3.610850    3.191052    0.465917
     41          6           0        4.518857   -0.418057   -1.837317
     42          1           0        4.900035   -1.425855   -2.028693
     43          1           0        3.555297   -0.336275   -2.346993
     44          1           0        5.195769    0.299030   -2.311734
     45          6           0        2.130029    1.153594   -0.410435
     46          1           0        1.678970    2.111197   -0.132496
     47          1           0        1.966565    1.029600   -1.493301
     48          6           0        2.074499   -1.324789   -0.016552
     49          1           0        1.947213   -1.543568   -1.087227
     50          1           0        1.571916   -2.131072    0.529674
     51          6           0       12.532524    0.166577    2.006561
     52          1           0       12.193293    1.060197    2.540249
     53          1           0       12.669120   -0.604155    2.778772
     54          6           0        1.397561    0.007675    0.303185
     55          1           0        1.436004    0.180037    1.385706
     56          6           0       11.334605   -1.843052    1.026185
     57          1           0       10.893649   -2.193640    1.967651
     58          1           0       12.326741   -2.296351    0.941609
     59          1           0       10.727169   -2.235240    0.206501
     60          6           0       13.899336    0.502310    1.378515
     61          1           0       13.752919    1.298999    0.637215
     62          1           0       14.541318    0.930557    2.161946
     63          6           0       14.643357   -0.677860    0.735129
     64          1           0       14.068810   -1.067126   -0.117734
     65          1           0       14.698863   -1.496864    1.466811
     66          6           0       16.074810   -0.360183    0.254615
     67          1           0       16.625164    0.063245    1.109185
     68          6           0       16.100387    0.675242   -0.881569
     69          1           0       15.537447    0.311230   -1.751098
     70          1           0       17.127668    0.869865   -1.210151
     71          1           0       15.664950    1.632537   -0.578547
     72          6           0       16.797090   -1.646871   -0.175627
     73          1           0       16.287632   -2.114660   -1.027981
     74          1           0       17.829862   -1.441202   -0.479433
     75          1           0       16.826223   -2.380616    0.638111
 ---------------------------------------------------------------------

 SCF Done:  E(RHF) =  -1198.92429730     A.U. after    9 cycles

 Alpha  occ. eigenvalues --  -20.55896 -20.55568 -11.28020 -11.27886 -11.24881
 Alpha  occ. eigenvalues --  -11.24091 -11.23183 -11.22920 -11.22894 -11.22715
 Alpha  occ. eigenvalues --  -11.22567 -11.22514 -11.22461 -11.22264 -11.22245
 Alpha  occ. eigenvalues --  -11.22230 -11.21957 -11.21918 -11.21667 -11.21558
 Alpha  occ. eigenvalues --  -11.21550 -11.21418 -11.21271 -11.21036 -11.21025
 Alpha  occ. eigenvalues --  -11.20998 -11.20972 -11.20805 -11.20451  -1.35269
 Alpha  occ. eigenvalues --   -1.34757  -1.16052  -1.13846  -1.09608  -1.08084
 Alpha  occ. eigenvalues --   -1.05905  -1.05655  -1.03051  -1.01701  -0.99516
 Alpha  occ. eigenvalues --   -0.97906  -0.96233  -0.92849  -0.92369  -0.92289
 Alpha  occ. eigenvalues --   -0.91183  -0.90563  -0.86175  -0.83914  -0.82795
 Alpha  occ. eigenvalues --   -0.82056  -0.78884  -0.78325  -0.77021  -0.75898
 Alpha  occ. eigenvalues --   -0.74222  -0.72096  -0.69944  -0.67261  -0.66472
 Alpha  occ. eigenvalues --   -0.64394  -0.64011  -0.63666  -0.63610  -0.62675
 Alpha  occ. eigenvalues --   -0.61637  -0.60828  -0.60713  -0.59928  -0.59282
 Alpha  occ. eigenvalues --   -0.58733  -0.58615  -0.57785  -0.57388  -0.56264
 Alpha  occ. eigenvalues --   -0.56033  -0.55646  -0.55383  -0.54800  -0.54368
 Alpha  occ. eigenvalues --   -0.54065  -0.53325  -0.53124  -0.52948  -0.52645
 Alpha  occ. eigenvalues --   -0.52259  -0.52166  -0.51356  -0.50919  -0.50381
 Alpha  occ. eigenvalues --   -0.48801  -0.48442  -0.48174  -0.47788  -0.47067
 Alpha  occ. eigenvalues --   -0.46979  -0.46437  -0.46166  -0.46014  -0.45276
 Alpha  occ. eigenvalues --   -0.44975  -0.44581  -0.44349  -0.44097  -0.43348
 Alpha  occ. eigenvalues --   -0.43230  -0.42512  -0.42231  -0.41648  -0.40354
 Alpha  occ. eigenvalues --   -0.38413  -0.34010
 Alpha virt. eigenvalues --    0.16210   0.20942   0.21433   0.22087   0.22465
 Alpha virt. eigenvalues --    0.22943   0.23801   0.24653   0.25112   0.25343
 Alpha virt. eigenvalues --    0.25877   0.26282   0.26784   0.27112   0.27430

 Mulliken charges:
               1
     1  O   -0.763865
     2  H    0.429070
     3  O   -0.758996
     4  H    0.428101
     5  C   -0.030015
     6  C   -0.167331
     7  H    0.150074
     8  C   -0.167492
     9  H    0.154294
    10  C   -0.166966
    11  H    0.159325
    12  C   -0.143118
    13  H    0.152307
    14  C   -0.297783
    15  H    0.152214
    16  H    0.165387
    17  C   -0.040580
    18  C   -0.298867
    19  H    0.184059
    20  H    0.158987
    21  C   -0.327619
    22  H    0.163685
    23  H    0.166850
    24  C   -0.338294
    25  H    0.158956
    26  H    0.165570
    27  C    0.184424
    28  H    0.176600
    29  C   -0.138317
    30  H    0.156681
    31  C   -0.488304
    32  H    0.159577
    33  H    0.167454
    34  H    0.162574
    35  C    0.074496
    36  C   -0.326061
    37  H    0.166490
    38  H    0.173007
    39  C   -0.290689
    40  H    0.193948
    41  C   -0.477684
    42  H    0.167279
    43  H    0.162511
    44  H    0.164616
    45  C   -0.365977
    46  H    0.193883
    47  H    0.152384
    48  C   -0.340762
    49  H    0.144088
    50  H    0.183645
    51  C   -0.319875
    52  H    0.167745
    53  H    0.154107
    54  C    0.193732
    55  H    0.174225
    56  C   -0.489091
    57  H    0.153473
    58  H    0.166839
    59  H    0.157477
    60  C   -0.308016
    61  H    0.155376
    62  H    0.152186
    63  C   -0.301694
    64  H    0.151990
    65  H    0.151242
    66  C   -0.146771
    67  H    0.151530
    68  C   -0.476659
    69  H    0.150969
    70  H    0.158336
    71  H    0.163432
    72  C   -0.472222
    73  H    0.152026
    74  H    0.158193
    75  H    0.157633
 Sum of Mulliken charges =   0.00000

 Dipole moment (field-independent basis, Debye):
    X=              0.5528    Y=             -1.7568    Z=             -1.8393  Tot=              2.6029
 Quadrupole moment (field-independent basis, Debye-Ang):
   XX=           -193.9870   YY=           -194.1409   ZZ=           -180.8834
   XY=            -10.1486   XZ=             -1.6514   YZ=             -2.8747

 ESP charges:
               1
     1  O   -0.797742
     2  H    0.449470
     3  O   -0.733447
     4  H    0.419835
     5  C    0.608045
     6  C    0.180619
     7  H   -0.028522
     8  C   -0.531423
     9  H    0.145051
    10  C   -0.251686
    11  H    0.093534
    12  C   -0.051288
    13  H   -0.013816
    14  C   -0.241475
    15  H    0.018455
    16  H    0.029743
    17  C    0.150164
    18  C   -0.185335
    19  H    0.087990
    20  H    0.050122
    21  C    0.166499
    22  H   -0.007169
    23  H   -0.017906
    24  C   -0.256453
    25  H    0.075489
    26  H    0.086611
    27  C    0.806358
    28  H    0.002330
    29  C    0.209859
    30  H    0.006938
    31  C   -0.648111
    32  H    0.147956
    33  H    0.140077
    34  H    0.125569
    35  C    0.276708
    36  C   -0.059142
    37  H    0.024253
    38  H    0.076218
    39  C   -0.708436
    40  H    0.221414
    41  C   -0.342437
    42  H    0.090381
    43  H    0.084872
    44  H    0.098045
    45  C   -0.453371
    46  H    0.137631
    47  H    0.124904
    48  C   -0.340912
    49  H    0.092126
    50  H    0.094508
    51  C   -0.160738
    52  H    0.030662
    53  H    0.058664
    54  C    0.498832
    55  H    0.051879
    56  C   -0.386005
    57  H    0.078781
    58  H    0.080300
    59  H    0.086864
    60  C   -0.058258
    61  H    0.031090
    62  H    0.031291
    63  C   -0.176398
    64  H    0.054064
    65  H    0.060358
    66  C    0.387556
    67  H   -0.034555
    68  C   -0.411623
    69  H    0.098234
    70  H    0.093029
    71  H    0.085350
    72  C   -0.453106
    73  H    0.100772
    74  H    0.111292
    75  H    0.088563
 Sum of ESP charges =   0.00000

 Normal termination of Gaussian 09 at Thu May 18 12:35:06 2017.
