 Gaussian 09, Revision D.01,
 Gaussian 09:  EM64L-G09RevD.01 24-Apr-2013

 ----------------------------------------------------------------------
 #P HF/6-31G* SCF(Conver=6) NoSymm Test Pop=mk IOp(6/33=2) GFInput GFPr
 int
 ----------------------------------------------------------------------

 ----------------------------------------------
 MEP - Input generated by R.E.D.-III.x MOLECULE
 ----------------------------------------------
 Symbolic Z-matrix:
 Charge =  0 Multiplicity = 1

                          Input orientation:
 ---------------------------------------------------------------------
 Center     Atomic      Atomic             Coordinates (Angstroms)
 Number     Number       Type             X           Y           Z
 ---------------------------------------------------------------------
      1          8           0        0.000000    0.000000    0.000000
      2          1           0       -0.229991    0.139997    0.929407
      3          8           0       -2.971159    6.519383    0.000000
      4          1           0       -2.967256    6.721800    0.946136
      5          6           0        4.290012    1.500909   -0.419468
      6          6           0        2.854725    1.030074   -0.794958
      7          1           0        2.750363    1.268306   -1.867798
      8          6           0        1.710681    1.788571   -0.098658
      9          1           0        1.761062    1.617039    0.986702
     10          6           0        1.842850    3.310165   -0.387798
     11          1           0        1.663900    3.422875   -1.469858
     12          6           0        5.135333    0.512875   -1.296502
     13          1           0        5.017117    0.864974   -2.332342
     14          6           0        4.381796    2.992406   -0.796713
     15          1           0        4.292002    3.085829   -1.888743
     16          1           0        5.352509    3.420168   -0.526658
     17          6           0        0.735818    4.172691    0.312967
     18          6           0        2.921069   -0.503040   -0.696110
     19          1           0        2.157061   -0.992189   -1.304819
     20          1           0        2.744241   -0.832119    0.333259
     21          6           0        3.275946    3.823893   -0.119130
     22          1           0        3.465633    3.845289    0.959416
     23          1           0        3.364092    4.861094   -0.461070
     24          6           0        4.365918   -0.840753   -1.154947
     25          1           0        4.863179   -1.485119   -0.420179
     26          1           0        4.370809   -1.394590   -2.099140
     27          6           0        0.334451    1.280568   -0.571231
     28          1           0        0.383909    1.071016   -1.649256
     29          6           0        6.654265    0.365022   -1.031766
     30          1           0        6.767429    0.000000    0.000000
     31          6           0        4.604615    1.296343    1.080224
     32          1           0        3.892780    1.812985    1.729408
     33          1           0        4.587657    0.239265    1.361364
     34          1           0        5.600253    1.682949    1.322633
     35          6           0       -0.636183    3.518620    0.116163
     36          6           0        0.703490    5.582461   -0.356374
     37          1           0        0.710181    5.445198   -1.446515
     38          1           0        1.620790    6.125893   -0.106479
     39          6           0       -0.779743    2.254419   -0.307735
     40          1           0       -1.779947    1.849856   -0.462659
     41          6           0        1.003313    4.327134    1.834202
     42          1           0        1.886138    4.945605    2.023122
     43          1           0        0.161743    4.803301    2.344056
     44          1           0        1.159537    3.354256    2.310341
     45          6           0       -1.857754    4.368288    0.411809
     46          1           0       -2.769739    3.829772    0.136123
     47          1           0       -1.921336    4.564204    1.494498
     48          6           0       -0.510725    6.448585    0.012934
     49          1           0       -0.491170    6.702145    1.083335
     50          1           0       -0.473922    7.397303   -0.534433
     51          6           0        7.296797   -0.748785   -1.909432
     52          1           0        8.359874   -0.811586   -1.641597
     53          1           0        6.865144   -1.706511   -1.595527
     54          6           0       -1.820224    5.726811   -0.303774
     55          1           0       -1.886945    5.560999   -1.385945
     56          6           0        7.432444    1.692607   -1.115366
     57          1           0        7.207087    2.248638   -2.030824
     58          1           0        8.512456    1.508662   -1.095007
     59          1           0        7.202064    2.348035   -0.271003
     60          6           0        7.158506   -0.677871   -3.447280
     61          1           0        7.388970   -1.676836   -3.839437
     62          1           0        6.107418   -0.505927   -3.710966
     63          6           0        8.016017    0.350560   -4.212746
     64          1           0        7.720486    1.367198   -3.928650
     65          1           0        7.771966    0.258491   -5.281997
     66          6           0        9.547704    0.228456   -4.065538
     67          1           0        9.802924    0.333001   -3.001496
     68          6           0       10.244165    1.373442   -4.818709
     69          1           0       10.031782    1.320080   -5.894313
     70          1           0       11.332058    1.329477   -4.692795
     71          1           0        9.904214    2.352199   -4.461098
     72          6           0       10.079159   -1.132190   -4.543944
     73          1           0        9.824810   -1.300558   -5.598636
     74          1           0       11.170521   -1.178707   -4.454822
     75          1           0        9.666381   -1.964433   -3.964843
 ---------------------------------------------------------------------

 SCF Done:  E(RHF) =  -1198.92138725     A.U. after    9 cycles

 Alpha  occ. eigenvalues --  -20.55906 -20.55579 -11.28031 -11.27899 -11.24898
 Alpha  occ. eigenvalues --  -11.24104 -11.23204 -11.22930 -11.22909 -11.22754
 Alpha  occ. eigenvalues --  -11.22580 -11.22532 -11.22347 -11.22325 -11.22280
 Alpha  occ. eigenvalues --  -11.22258 -11.21986 -11.21863 -11.21683 -11.21595
 Alpha  occ. eigenvalues --  -11.21491 -11.21388 -11.21329 -11.21056 -11.20982
 Alpha  occ. eigenvalues --  -11.20965 -11.20944 -11.20903 -11.20470  -1.35279
 Alpha  occ. eigenvalues --   -1.34770  -1.16079  -1.13888  -1.09540  -1.08016
 Alpha  occ. eigenvalues --   -1.05906  -1.05513  -1.03070  -1.01596  -0.99433
 Alpha  occ. eigenvalues --   -0.97891  -0.96269  -0.92950  -0.92397  -0.92268
 Alpha  occ. eigenvalues --   -0.91471  -0.90641  -0.86191  -0.84075  -0.82822
 Alpha  occ. eigenvalues --   -0.82778  -0.79225  -0.78572  -0.77031  -0.75291
 Alpha  occ. eigenvalues --   -0.73039  -0.71344  -0.69993  -0.67294  -0.66582
 Alpha  occ. eigenvalues --   -0.64851  -0.64048  -0.63807  -0.63444  -0.62594
 Alpha  occ. eigenvalues --   -0.61976  -0.61223  -0.60730  -0.59980  -0.59417
 Alpha  occ. eigenvalues --   -0.58730  -0.58062  -0.57661  -0.57452  -0.56202
 Alpha  occ. eigenvalues --   -0.56103  -0.55509  -0.55202  -0.54645  -0.54445
 Alpha  occ. eigenvalues --   -0.54199  -0.53652  -0.53213  -0.53076  -0.52882
 Alpha  occ. eigenvalues --   -0.52732  -0.52147  -0.50975  -0.50604  -0.50353
 Alpha  occ. eigenvalues --   -0.49620  -0.48504  -0.48137  -0.47956  -0.47265
 Alpha  occ. eigenvalues --   -0.46996  -0.46502  -0.46152  -0.45997  -0.45190
 Alpha  occ. eigenvalues --   -0.44920  -0.44558  -0.43918  -0.43707  -0.43439
 Alpha  occ. eigenvalues --   -0.42957  -0.42538  -0.42019  -0.41625  -0.40403
 Alpha  occ. eigenvalues --   -0.38536  -0.34023
 Alpha virt. eigenvalues --    0.16195   0.20403   0.21041   0.22029   0.22292
 Alpha virt. eigenvalues --    0.23105   0.23891   0.24093   0.24732   0.25490
 Alpha virt. eigenvalues --    0.25872   0.26115   0.26611   0.26716   0.27401

 Mulliken charges:
               1
     1  O   -0.763761
     2  H    0.429062
     3  O   -0.758975
     4  H    0.428118
     5  C   -0.028293
     6  C   -0.167247
     7  H    0.149966
     8  C   -0.167147
     9  H    0.154398
    10  C   -0.167055
    11  H    0.159313
    12  C   -0.142639
    13  H    0.155035
    14  C   -0.298054
    15  H    0.151860
    16  H    0.165086
    17  C   -0.040624
    18  C   -0.297966
    19  H    0.182470
    20  H    0.160159
    21  C   -0.327674
    22  H    0.163805
    23  H    0.166921
    24  C   -0.340871
    25  H    0.158833
    26  H    0.167391
    27  C    0.184637
    28  H    0.176629
    29  C   -0.142570
    30  H    0.155369
    31  C   -0.488344
    32  H    0.159806
    33  H    0.167791
    34  H    0.162044
    35  C    0.074588
    36  C   -0.326064
    37  H    0.166511
    38  H    0.173002
    39  C   -0.291056
    40  H    0.193997
    41  C   -0.477715
    42  H    0.167244
    43  H    0.162558
    44  H    0.164704
    45  C   -0.365993
    46  H    0.193905
    47  H    0.152424
    48  C   -0.340811
    49  H    0.144094
    50  H    0.183695
    51  C   -0.318725
    52  H    0.156705
    53  H    0.163672
    54  C    0.193743
    55  H    0.174240
    56  C   -0.489112
    57  H    0.158397
    58  H    0.159296
    59  H    0.159895
    60  C   -0.319825
    61  H    0.158447
    62  H    0.161163
    63  C   -0.299930
    64  H    0.156486
    65  H    0.149113
    66  C   -0.151557
    67  H    0.155232
    68  C   -0.471972
    69  H    0.152359
    70  H    0.157700
    71  H    0.157155
    72  C   -0.477316
    73  H    0.151977
    74  H    0.157880
    75  H    0.162423
 Sum of Mulliken charges =   0.00000

 Dipole moment (field-independent basis, Debye):
    X=              1.4012    Y=              1.1805    Z=              2.0766  Tot=              2.7693
 Quadrupole moment (field-independent basis, Debye-Ang):
   XX=           -193.4717   YY=           -188.8087   ZZ=           -182.0367
   XY=              9.9434   XZ=             -2.7522   YZ=              8.4945

 ESP charges:
               1
     1  O   -0.793311
     2  H    0.447278
     3  O   -0.742263
     4  H    0.418303
     5  C    0.518070
     6  C    0.187020
     7  H   -0.029332
     8  C   -0.480123
     9  H    0.142917
    10  C   -0.306281
    11  H    0.104142
    12  C   -0.029580
    13  H    0.002674
    14  C   -0.217477
    15  H    0.014942
    16  H    0.022142
    17  C    0.134935
    18  C   -0.300556
    19  H    0.110018
    20  H    0.071838
    21  C    0.195799
    22  H   -0.005786
    23  H   -0.024150
    24  C   -0.078384
    25  H    0.033994
    26  H    0.030571
    27  C    0.786092
    28  H    0.003466
    29  C    0.295203
    30  H   -0.033360
    31  C   -0.624213
    32  H    0.142888
    33  H    0.137025
    34  H    0.127370
    35  C    0.267100
    36  C   -0.094152
    37  H    0.041285
    38  H    0.090319
    39  C   -0.672536
    40  H    0.211589
    41  C   -0.332005
    42  H    0.091119
    43  H    0.086549
    44  H    0.095280
    45  C   -0.456395
    46  H    0.133532
    47  H    0.124918
    48  C   -0.372969
    49  H    0.100916
    50  H    0.103512
    51  C   -0.227619
    52  H    0.054711
    53  H    0.034325
    54  C    0.546717
    55  H    0.040996
    56  C   -0.498511
    57  H    0.110376
    58  H    0.114960
    59  H    0.110418
    60  C    0.009635
    61  H    0.027931
    62  H    0.016356
    63  C   -0.231192
    64  H    0.049234
    65  H    0.049398
    66  C    0.488578
    67  H   -0.033813
    68  C   -0.529014
    69  H    0.123074
    70  H    0.120414
    71  H    0.107906
    72  C   -0.507475
    73  H    0.118581
    74  H    0.109265
    75  H    0.114819
 Sum of ESP charges =   0.00000

 Normal termination of Gaussian 09 at Thu May 18 12:47:14 2017.
