 Gaussian 09, Revision D.01,
 Gaussian 09:  EM64L-G09RevD.01 24-Apr-2013

 ----------------------------------------------------------------------
 #P HF/6-31G* SCF(Conver=6) NoSymm Test Pop=mk IOp(6/33=2) GFInput GFPr
 int
 ----------------------------------------------------------------------

 ----------------------------------------------
 MEP - Input generated by R.E.D.-III.x MOLECULE
 ----------------------------------------------
 Symbolic Z-matrix:
 Charge =  0 Multiplicity = 1

                          Input orientation:
 ---------------------------------------------------------------------
 Center     Atomic      Atomic             Coordinates (Angstroms)
 Number     Number       Type             X           Y           Z
 ---------------------------------------------------------------------
      1          8           0        7.120779    0.781118    0.000000
      2          1           0        7.691892    0.000000    0.000000
      3          8           0       10.348373    1.134415   -6.386453
      4          1           0       10.717107    0.242561   -6.455691
      5          6           0        3.113915   -0.665678   -1.648056
      6          6           0        4.266579    0.278124   -1.190488
      7          1           0        3.982595    1.277609   -1.562131
      8          6           0        5.640777   -0.008082   -1.821915
      9          1           0        5.997263   -0.998381   -1.503146
     10          6           0        5.519869    0.022605   -3.372417
     11          1           0        5.284113    1.068325   -3.630390
     12          6           0        1.939671   -0.043483   -0.814938
     13          1           0        1.777010    0.941570   -1.274340
     14          6           0        2.998917   -0.530910   -3.177500
     15          1           0        2.685860    0.493393   -3.423778
     16          1           0        2.229235   -1.199805   -3.580369
     17          6           0        6.870460   -0.295906   -4.104257
     18          6           0        4.124489    0.326523    0.342744
     19          1           0        4.567799    1.227904    0.772041
     20          1           0        4.646789   -0.517988    0.804667
     21          6           0        4.336431   -0.835274   -3.878537
     22          1           0        4.566562   -1.898422   -3.751100
     23          1           0        4.207050   -0.681357   -4.955519
     24          6           0        2.590216    0.236146    0.576632
     25          1           0        2.353413   -0.557965    1.292281
     26          1           0        2.186674    1.161173    1.003429
     27          6           0        6.692729    1.017232   -1.355982
     28          1           0        6.223306    2.009876   -1.303226
     29          6           0        0.518525   -0.667368   -0.705065
     30          1           0        0.000000    0.000000    0.000000
     31          6           0        3.392913   -2.137449   -1.263153
     32          1           0        4.383055   -2.466003   -1.589787
     33          1           0        3.341344   -2.299158   -0.183698
     34          1           0        2.664098   -2.804998   -1.731854
     35          6           0        8.014371    0.489317   -3.452916
     36          6           0        6.752346    0.161610   -5.592056
     37          1           0        6.324506    1.173547   -5.607043
     38          1           0        6.040508   -0.484147   -6.116920
     39          6           0        7.893346    1.085294   -2.257652
     40          1           0        8.728353    1.659593   -1.856394
     41          6           0        7.209215   -1.809829   -4.052755
     42          1           0        6.510297   -2.395562   -4.657704
     43          1           0        8.213090   -2.010447   -4.435924
     44          1           0        7.174298   -2.189372   -3.026968
     45          6           0        9.316665    0.585109   -4.225277
     46          1           0       10.015212    1.250956   -3.709159
     47          1           0        9.797482   -0.405633   -4.268510
     48          6           0        8.076645    0.186911   -6.370923
     49          1           0        8.481331   -0.830787   -6.475391
     50          1           0        7.906008    0.561765   -7.386508
     51          6           0       -0.300824   -0.647640   -2.019147
     52          1           0        0.182770   -1.306349   -2.751804
     53          1           0       -1.274781   -1.111657   -1.805725
     54          6           0        9.112713    1.065018   -5.669929
     55          1           0        8.753868    2.101362   -5.653337
     56          6           0        0.421901   -2.075614   -0.083713
     57          1           0        0.713387   -2.858916   -0.789660
     58          1           0       -0.614655   -2.276215    0.210397
     59          1           0        1.040168   -2.185472    0.811915
     60          6           0       -0.565900    0.719055   -2.679771
     61          1           0        0.380714    1.200257   -2.957500
     62          1           0       -1.090901    0.528955   -3.624123
     63          6           0       -1.392255    1.691384   -1.823921
     64          1           0       -0.863611    1.882602   -0.880952
     65          1           0       -2.344106    1.212092   -1.546354
     66          6           0       -1.695272    3.052635   -2.485011
     67          1           0       -0.735802    3.485533   -2.808448
     68          6           0       -2.323667    4.017571   -1.466857
     69          1           0       -3.284819    3.630812   -1.104397
     70          1           0       -2.509399    5.001529   -1.912392
     71          1           0       -1.673059    4.160391   -0.596476
     72          6           0       -2.595336    2.922922   -3.724754
     73          1           0       -3.560829    2.473755   -3.457527
     74          1           0       -2.798076    3.905947   -4.164879
     75          1           0       -2.142059    2.301837   -4.503684
 ---------------------------------------------------------------------

 SCF Done:  E(RHF) =  -1198.92088132     A.U. after    9 cycles

 Alpha  occ. eigenvalues --  -20.55910 -20.55582 -11.28034 -11.27902 -11.24912
 Alpha  occ. eigenvalues --  -11.24108 -11.23248 -11.22933 -11.22919 -11.22765
 Alpha  occ. eigenvalues --  -11.22585 -11.22542 -11.22521 -11.22379 -11.22279
 Alpha  occ. eigenvalues --  -11.22260 -11.22014 -11.21901 -11.21698 -11.21673
 Alpha  occ. eigenvalues --  -11.21545 -11.21482 -11.21437 -11.21043 -11.21035
 Alpha  occ. eigenvalues --  -11.20921 -11.20900 -11.20801 -11.20512  -1.35282
 Alpha  occ. eigenvalues --   -1.34776  -1.16068  -1.13841  -1.09610  -1.08065
 Alpha  occ. eigenvalues --   -1.05936  -1.05730  -1.03085  -1.01710  -0.99663
 Alpha  occ. eigenvalues --   -0.97889  -0.96316  -0.92561  -0.92418  -0.92373
 Alpha  occ. eigenvalues --   -0.91467  -0.90490  -0.86194  -0.83954  -0.82911
 Alpha  occ. eigenvalues --   -0.82553  -0.78781  -0.78681  -0.76874  -0.76023
 Alpha  occ. eigenvalues --   -0.73966  -0.71439  -0.69895  -0.67246  -0.66126
 Alpha  occ. eigenvalues --   -0.64717  -0.63996  -0.63818  -0.63359  -0.62880
 Alpha  occ. eigenvalues --   -0.61780  -0.61014  -0.60590  -0.60358  -0.59283
 Alpha  occ. eigenvalues --   -0.59012  -0.58655  -0.57818  -0.57370  -0.56131
 Alpha  occ. eigenvalues --   -0.55972  -0.55708  -0.55227  -0.54532  -0.54471
 Alpha  occ. eigenvalues --   -0.54191  -0.53666  -0.53296  -0.53009  -0.52757
 Alpha  occ. eigenvalues --   -0.52596  -0.52154  -0.51237  -0.50514  -0.49989
 Alpha  occ. eigenvalues --   -0.48691  -0.48494  -0.48342  -0.47720  -0.47438
 Alpha  occ. eigenvalues --   -0.47108  -0.46811  -0.46314  -0.46012  -0.45331
 Alpha  occ. eigenvalues --   -0.45209  -0.44908  -0.44475  -0.43529  -0.43378
 Alpha  occ. eigenvalues --   -0.42714  -0.42532  -0.42134  -0.41683  -0.40308
 Alpha  occ. eigenvalues --   -0.38452  -0.34026
 Alpha virt. eigenvalues --    0.16194   0.20347   0.20955   0.22082   0.22372
 Alpha virt. eigenvalues --    0.22728   0.23848   0.24395   0.24867   0.25077
 Alpha virt. eigenvalues --    0.25516   0.26230   0.26553   0.27122   0.27429

 Mulliken charges:
               1
     1  O   -0.763694
     2  H    0.429133
     3  O   -0.758964
     4  H    0.428128
     5  C   -0.022474
     6  C   -0.169727
     7  H    0.149685
     8  C   -0.167955
     9  H    0.154148
    10  C   -0.166917
    11  H    0.159020
    12  C   -0.154557
    13  H    0.157943
    14  C   -0.301730
    15  H    0.153956
    16  H    0.162733
    17  C   -0.040733
    18  C   -0.297741
    19  H    0.183121
    20  H    0.159530
    21  C   -0.327585
    22  H    0.165240
    23  H    0.166911
    24  C   -0.332596
    25  H    0.159244
    26  H    0.162064
    27  C    0.185357
    28  H    0.176443
    29  C   -0.147770
    30  H    0.158455
    31  C   -0.485195
    32  H    0.158725
    33  H    0.168764
    34  H    0.160839
    35  C    0.074539
    36  C   -0.326061
    37  H    0.166413
    38  H    0.172954
    39  C   -0.290896
    40  H    0.194053
    41  C   -0.477490
    42  H    0.167326
    43  H    0.162549
    44  H    0.164724
    45  C   -0.366047
    46  H    0.193916
    47  H    0.152438
    48  C   -0.340736
    49  H    0.144136
    50  H    0.183672
    51  C   -0.303159
    52  H    0.154766
    53  H    0.152598
    54  C    0.193756
    55  H    0.174204
    56  C   -0.481531
    57  H    0.155239
    58  H    0.158135
    59  H    0.161109
    60  C   -0.316860
    61  H    0.155545
    62  H    0.159040
    63  C   -0.300545
    64  H    0.156854
    65  H    0.147016
    66  C   -0.146276
    67  H    0.150302
    68  C   -0.472467
    69  H    0.152897
    70  H    0.158209
    71  H    0.157960
    72  C   -0.476301
    73  H    0.152017
    74  H    0.158455
    75  H    0.161744
 Sum of Mulliken charges =   0.00000

 Dipole moment (field-independent basis, Debye):
    X=             -0.4965    Y=             -2.4310    Z=             -1.0394  Tot=              2.6901
 Quadrupole moment (field-independent basis, Debye-Ang):
   XX=           -196.1703   YY=           -187.7974   ZZ=           -190.1338
   XY=            -24.7060   XZ=              0.1994   YZ=              9.8627

 ESP charges:
               1
     1  O   -0.797510
     2  H    0.450851
     3  O   -0.734324
     4  H    0.421171
     5  C    0.746950
     6  C   -0.006003
     7  H   -0.013841
     8  C   -0.448511
     9  H    0.140008
    10  C   -0.219439
    11  H    0.095742
    12  C   -0.031494
    13  H    0.012261
    14  C   -0.316702
    15  H    0.075430
    16  H    0.055153
    17  C    0.050093
    18  C   -0.058033
    19  H    0.068048
    20  H    0.021749
    21  C    0.013998
    22  H    0.040375
    23  H    0.026956
    24  C   -0.298431
    25  H    0.076376
    26  H    0.069314
    27  C    0.786038
    28  H    0.011789
    29  C    0.303809
    30  H   -0.001163
    31  C   -0.699281
    32  H    0.156168
    33  H    0.160152
    34  H    0.137608
    35  C    0.349694
    36  C   -0.032651
    37  H    0.029006
    38  H    0.085818
    39  C   -0.717025
    40  H    0.218799
    41  C   -0.384407
    42  H    0.109436
    43  H    0.103303
    44  H    0.109609
    45  C   -0.482760
    46  H    0.140239
    47  H    0.128224
    48  C   -0.398064
    49  H    0.107547
    50  H    0.108312
    51  C   -0.337418
    52  H    0.068080
    53  H    0.100331
    54  C    0.524916
    55  H    0.045981
    56  C   -0.541767
    57  H    0.118502
    58  H    0.122852
    59  H    0.124366
    60  C   -0.026506
    61  H   -0.029240
    62  H    0.059168
    63  C   -0.143197
    64  H    0.029535
    65  H    0.043671
    66  C    0.414591
    67  H   -0.029072
    68  C   -0.520463
    69  H    0.116694
    70  H    0.123779
    71  H    0.111001
    72  C   -0.426016
    73  H    0.102057
    74  H    0.097207
    75  H    0.080562
 Sum of ESP charges =   0.00000

 Normal termination of Gaussian 09 at Thu May 18 13:23:01 2017.
