 Gaussian 09, Revision D.01,
 Gaussian 09:  EM64L-G09RevD.01 24-Apr-2013

 ----------------------------------------------------------------------
 #P HF/6-31G* SCF(Conver=6) NoSymm Test Pop=mk IOp(6/33=2) GFInput GFPr
 int
 ----------------------------------------------------------------------

 ----------------------------------------------
 MEP - Input generated by R.E.D.-III.x MOLECULE
 ----------------------------------------------
 Symbolic Z-matrix:
 Charge =  0 Multiplicity = 1

                          Input orientation:
 ---------------------------------------------------------------------
 Center     Atomic      Atomic             Coordinates (Angstroms)
 Number     Number       Type             X           Y           Z
 ---------------------------------------------------------------------
      1          8           0        5.549252    4.535295    0.000000
      2          1           0        5.218927    4.597851   -0.907357
      3          8           0        0.000000    0.000000    0.000000
      4          1           0       -0.155901   -0.100689   -0.949593
      5          6           0        8.724641    1.275476   -0.134064
      6          6           0        7.697233    2.295949    0.422960
      7          1           0        7.579088    2.031031    1.487765
      8          6           0        6.286441    2.179293   -0.178274
      9          1           0        6.321700    2.406047   -1.253954
     10          6           0        5.753713    0.730928    0.030548
     11          1           0        5.621277    0.621523    1.119596
     12          6           0        9.982735    1.692546    0.690165
     13          1           0        9.742921    1.379868    1.716968
     14          6           0        8.194052   -0.133771    0.176906
     15          1           0        8.167506   -0.268483    1.267930
     16          1           0        8.864193   -0.909092   -0.218127
     17          6           0        4.330152    0.503812   -0.589720
     18          6           0        8.451547    3.640424    0.393550
     19          1           0        8.052665    4.353214    1.119111
     20          1           0        8.352678    4.119220   -0.586287
     21          6           0        6.780552   -0.346947   -0.399025
     22          1           0        6.847030   -0.381679   -1.491320
     23          1           0        6.422432   -1.334471   -0.088108
     24          6           0        9.934851    3.252197    0.680625
     25          1           0       10.592016    3.668342   -0.088133
     26          1           0       10.281949    3.659975    1.635902
     27          6           0        5.317919    3.190588    0.464160
     28          1           0        5.533520    3.254484    1.540277
     29          6           0       11.344960    1.013283    0.363156
     30          1           0       11.113467    0.000000    0.000000
     31          6           0        8.953324    1.435171   -1.653457
     32          1           0        8.037022    1.274529   -2.227438
     33          1           0        9.322949    2.430872   -1.913185
     34          1           0        9.687233    0.703882   -2.009125
     35          6           0        3.408982    1.673016   -0.223069
     36          6           0        3.723874   -0.801406    0.014761
     37          1           0        3.870975   -0.776245    1.103362
     38          1           0        4.282780   -1.667803   -0.354125
     39          6           0        3.871581    2.831111    0.270241
     40          1           0        3.168539    3.617229    0.545581
     41          6           0        4.388871    0.380458   -2.136051
     42          1           0        4.887153   -0.543801   -2.444276
     43          1           0        3.388486    0.368679   -2.576426
     44          1           0        4.926508    1.223401   -2.580877
     45          6           0        1.919338    1.472498   -0.429462
     46          1           0        1.363839    2.330341   -0.038022
     47          1           0        1.696995    1.417021   -1.507467
     48          6           0        2.227731   -1.012771   -0.264650
     49          1           0        2.054032   -1.156626   -1.341468
     50          1           0        1.879609   -1.924864    0.233271
     51          6           0       12.193146    1.707220   -0.729738
     52          1           0       11.548194    2.078904   -1.533038
     53          1           0       12.673704    2.593136   -0.294376
     54          6           0        1.401959    0.179365    0.217730
     55          1           0        1.495322    0.264538    1.307260
     56          6           0       12.169583    0.848991    1.656479
     57          1           0       12.383299    1.825672    2.108487
     58          1           0       13.127754    0.353072    1.471139
     59          1           0       11.627785    0.251050    2.397715
     60          6           0       13.259135    0.796724   -1.363449
     61          1           0       13.966528    0.450047   -0.600541
     62          1           0       12.763425   -0.108502   -1.741942
     63          6           0       14.030098    1.438241   -2.531802
     64          1           0       13.308833    1.720868   -3.312401
     65          1           0       14.681311    0.675166   -2.983615
     66          6           0       14.896262    2.672434   -2.200549
     67          1           0       14.245219    3.443830   -1.764960
     68          6           0       15.501970    3.255307   -3.487508
     69          1           0       16.169697    2.529314   -3.969172
     70          1           0       16.088063    4.157589   -3.278766
     71          1           0       14.722824    3.521380   -4.211120
     72          6           0       16.001299    2.356936   -1.179983
     73          1           0       16.667766    1.570832   -1.558461
     74          1           0       16.614010    3.243401   -0.980343
     75          1           0       15.594575    2.016304   -0.222342
 ---------------------------------------------------------------------

 SCF Done:  E(RHF) =  -1198.92504555     A.U. after    9 cycles

 Alpha  occ. eigenvalues --  -20.55913 -20.55587 -11.28036 -11.27888 -11.24932
 Alpha  occ. eigenvalues --  -11.24111 -11.23308 -11.22936 -11.22925 -11.22589
 Alpha  occ. eigenvalues --  -11.22563 -11.22509 -11.22377 -11.22341 -11.22293
 Alpha  occ. eigenvalues --  -11.22260 -11.22081 -11.21740 -11.21715 -11.21645
 Alpha  occ. eigenvalues --  -11.21552 -11.21495 -11.21210 -11.21058 -11.21008
 Alpha  occ. eigenvalues --  -11.20993 -11.20938 -11.20936 -11.20607  -1.35285
 Alpha  occ. eigenvalues --   -1.34778  -1.16109  -1.13921  -1.09637  -1.08072
 Alpha  occ. eigenvalues --   -1.05954  -1.05659  -1.03058  -1.01719  -0.99700
 Alpha  occ. eigenvalues --   -0.97931  -0.96198  -0.92654  -0.92371  -0.92072
 Alpha  occ. eigenvalues --   -0.91310  -0.90654  -0.86197  -0.83716  -0.82886
 Alpha  occ. eigenvalues --   -0.82702  -0.79818  -0.78528  -0.77348  -0.74966
 Alpha  occ. eigenvalues --   -0.73285  -0.71787  -0.69980  -0.67267  -0.66352
 Alpha  occ. eigenvalues --   -0.64401  -0.64085  -0.64020  -0.63571  -0.62535
 Alpha  occ. eigenvalues --   -0.62110  -0.61329  -0.60687  -0.60178  -0.59424
 Alpha  occ. eigenvalues --   -0.58775  -0.58496  -0.57684  -0.57418  -0.56260
 Alpha  occ. eigenvalues --   -0.55964  -0.55730  -0.55205  -0.54806  -0.54270
 Alpha  occ. eigenvalues --   -0.53910  -0.53643  -0.53310  -0.52998  -0.52802
 Alpha  occ. eigenvalues --   -0.52368  -0.52241  -0.51182  -0.50535  -0.50120
 Alpha  occ. eigenvalues --   -0.48807  -0.48368  -0.48070  -0.48056  -0.47560
 Alpha  occ. eigenvalues --   -0.46901  -0.46769  -0.46359  -0.45973  -0.45328
 Alpha  occ. eigenvalues --   -0.45163  -0.44894  -0.44443  -0.43647  -0.43488
 Alpha  occ. eigenvalues --   -0.42561  -0.42477  -0.42061  -0.41749  -0.40418
 Alpha  occ. eigenvalues --   -0.38670  -0.34028
 Alpha virt. eigenvalues --    0.16184   0.20683   0.21130   0.22036   0.22398
 Alpha virt. eigenvalues --    0.23068   0.23734   0.24062   0.24675   0.25249
 Alpha virt. eigenvalues --    0.25930   0.26385   0.26782   0.26992   0.27554

 Mulliken charges:
               1
     1  O   -0.763794
     2  H    0.429007
     3  O   -0.758960
     4  H    0.428120
     5  C   -0.032284
     6  C   -0.166507
     7  H    0.150008
     8  C   -0.167574
     9  H    0.154653
    10  C   -0.167596
    11  H    0.159601
    12  C   -0.148243
    13  H    0.155851
    14  C   -0.295799
    15  H    0.152763
    16  H    0.159092
    17  C   -0.040487
    18  C   -0.299232
    19  H    0.181259
    20  H    0.160341
    21  C   -0.328201
    22  H    0.164611
    23  H    0.167693
    24  C   -0.334026
    25  H    0.165768
    26  H    0.163347
    27  C    0.185655
    28  H    0.176560
    29  C   -0.143313
    30  H    0.155724
    31  C   -0.487417
    32  H    0.160401
    33  H    0.167407
    34  H    0.162303
    35  C    0.074314
    36  C   -0.326240
    37  H    0.166509
    38  H    0.173101
    39  C   -0.291075
    40  H    0.194079
    41  C   -0.477867
    42  H    0.166988
    43  H    0.162728
    44  H    0.165060
    45  C   -0.366072
    46  H    0.193945
    47  H    0.152366
    48  C   -0.340777
    49  H    0.144102
    50  H    0.183703
    51  C   -0.318568
    52  H    0.162540
    53  H    0.157355
    54  C    0.193778
    55  H    0.174253
    56  C   -0.482564
    57  H    0.155664
    58  H    0.160535
    59  H    0.157810
    60  C   -0.312665
    61  H    0.158130
    62  H    0.152554
    63  C   -0.297743
    64  H    0.150592
    65  H    0.150581
    66  C   -0.151725
    67  H    0.156786
    68  C   -0.471793
    69  H    0.152050
    70  H    0.158349
    71  H    0.157307
    72  C   -0.476762
    73  H    0.151715
    74  H    0.158639
    75  H    0.161588
 Sum of Mulliken charges =   0.00000

 Dipole moment (field-independent basis, Debye):
    X=              0.4836    Y=             -1.6021    Z=             -2.1358  Tot=              2.7133
 Quadrupole moment (field-independent basis, Debye-Ang):
   XX=           -195.5680   YY=           -195.7607   ZZ=           -182.2182
   XY=            -11.5782   XZ=             -2.7469   YZ=             -3.7338

 ESP charges:
               1
     1  O   -0.786038
     2  H    0.443529
     3  O   -0.740123
     4  H    0.421325
     5  C    0.472426
     6  C    0.083680
     7  H   -0.009666
     8  C   -0.410042
     9  H    0.118760
    10  C   -0.100194
    11  H    0.040600
    12  C    0.074212
    13  H   -0.015709
    14  C   -0.261462
    15  H    0.034741
    16  H    0.042050
    17  C    0.136262
    18  C   -0.277310
    19  H    0.100630
    20  H    0.071368
    21  C    0.126801
    22  H    0.004899
    23  H   -0.018861
    24  C   -0.039936
    25  H    0.007333
    26  H    0.021205
    27  C    0.772173
    28  H    0.004220
    29  C    0.011589
    30  H    0.016105
    31  C   -0.672442
    32  H    0.154868
    33  H    0.164853
    34  H    0.144380
    35  C    0.273984
    36  C   -0.039220
    37  H    0.017396
    38  H    0.070504
    39  C   -0.713717
    40  H    0.223944
    41  C   -0.323868
    42  H    0.076777
    43  H    0.081896
    44  H    0.084460
    45  C   -0.497741
    46  H    0.148714
    47  H    0.132562
    48  C   -0.370405
    49  H    0.096685
    50  H    0.098478
    51  C    0.104628
    52  H   -0.019019
    53  H    0.003087
    54  C    0.539641
    55  H    0.043065
    56  C   -0.456289
    57  H    0.106135
    58  H    0.119362
    59  H    0.107111
    60  C   -0.059582
    61  H    0.028638
    62  H    0.022492
    63  C   -0.260086
    64  H    0.053614
    65  H    0.062181
    66  C    0.501874
    67  H   -0.066707
    68  C   -0.509704
    69  H    0.112164
    70  H    0.117702
    71  H    0.103525
    72  C   -0.431773
    73  H    0.097714
    74  H    0.090385
    75  H    0.093167
 Sum of ESP charges =   0.00000

 Normal termination of Gaussian 09 at Thu May 18 13:04:52 2017.
