 Gaussian 09, Revision D.01,
 Gaussian 09:  EM64L-G09RevD.01 24-Apr-2013

 ----------------------------------------------------------------------
 #P HF/6-31G* SCF(Conver=6) NoSymm Test Pop=mk IOp(6/33=2) GFInput GFPr
 int
 ----------------------------------------------------------------------

 ----------------------------------------------
 MEP - Input generated by R.E.D.-III.x MOLECULE
 ----------------------------------------------
 Symbolic Z-matrix:
 Charge =  0 Multiplicity = 1

                          Input orientation:
 ---------------------------------------------------------------------
 Center     Atomic      Atomic             Coordinates (Angstroms)
 Number     Number       Type             X           Y           Z
 ---------------------------------------------------------------------
      1          8           0        5.538724    4.548017    0.000000
      2          1           0        5.201942    4.618021   -0.904432
      3          8           0        0.000000    0.000000    0.000000
      4          1           0       -0.161154   -0.095650   -0.949234
      5          6           0        8.721225    1.295157   -0.182768
      6          6           0        7.695527    2.311959    0.385391
      7          1           0        7.586058    2.043509    1.450045
      8          6           0        6.279826    2.195005   -0.204489
      9          1           0        6.304550    2.429727   -1.278725
     10          6           0        5.752428    0.743988   -0.001197
     11          1           0        5.628068    0.627085    1.088037
     12          6           0        9.982604    1.715241    0.634974
     13          1           0        9.733445    1.423218    1.665423
     14          6           0        8.194721   -0.115807    0.125989
     15          1           0        8.173519   -0.254865    1.216650
     16          1           0        8.863924   -0.888627   -0.275338
     17          6           0        4.325202    0.517244   -0.613043
     18          6           0        8.446392    3.658855    0.352560
     19          1           0        8.061716    4.362445    1.094641
     20          1           0        8.323545    4.147789   -0.619426
     21          6           0        6.779148   -0.328225   -0.444681
     22          1           0        6.841014   -0.353821   -1.537530
     23          1           0        6.424776   -1.318997   -0.139881
     24          6           0        9.937778    3.273801    0.600896
     25          1           0       10.567915    3.674991   -0.197601
     26          1           0       10.317837    3.698640    1.536000
     27          6           0        5.313814    3.198655    0.453538
     28          1           0        5.536621    3.253327    1.528696
     29          6           0       11.347386    1.017517    0.341388
     30          1           0       11.107881    0.000000    0.000000
     31          6           0        8.936886    1.464241   -1.702720
     32          1           0        8.009675    1.340385   -2.268319
     33          1           0        9.338380    2.449233   -1.955974
     34          1           0        9.640482    0.712153   -2.073963
     35          6           0        3.403890    1.682002   -0.233064
     36          6           0        3.725722   -0.792740   -0.012104
     37          1           0        3.879432   -0.773162    1.075692
     38          1           0        4.284447   -1.655744   -0.389158
     39          6           0        3.867033    2.837453    0.265889
     40          1           0        3.164036    3.620013    0.551291
     41          6           0        4.374228    0.402541   -2.160390
     42          1           0        4.872640   -0.518970   -2.476529
     43          1           0        3.371116    0.390869   -2.594551
     44          1           0        4.907350    1.248980   -2.604025
     45          6           0        1.913499    1.479477   -0.431655
     46          1           0        1.358534    2.333640   -0.031502
     47          1           0        1.684693    1.430269   -1.508582
     48          6           0        2.228439   -1.006167   -0.283625
     49          1           0        2.048486   -1.144371   -1.360168
     50          1           0        1.885550   -1.921919    0.211211
     51          6           0       12.213292    1.692463   -0.749489
     52          1           0       11.609613    1.866547   -1.645979
     53          1           0       12.511416    2.687135   -0.393201
     54          6           0        1.402795    0.181235    0.210669
     55          1           0        1.502296    0.259954    1.300142
     56          6           0       12.143514    0.872913    1.655078
     57          1           0       12.411859    1.856480    2.061216
     58          1           0       13.070608    0.308583    1.516708
     59          1           0       11.553310    0.349505    2.415228
     60          6           0       13.505642    0.948511   -1.152071
     61          1           0       14.036712    1.573340   -1.881486
     62          1           0       14.175786    0.888608   -0.285944
     63          6           0       13.341258   -0.471576   -1.725218
     64          1           0       12.864270   -1.114565   -0.973158
     65          1           0       14.344439   -0.894905   -1.883110
     66          6           0       12.555912   -0.600809   -3.047525
     67          1           0       11.553585   -0.175755   -2.896689
     68          6           0       12.377033   -2.082411   -3.416272
     69          1           0       13.349435   -2.563200   -3.583641
     70          1           0       11.788170   -2.196990   -4.333575
     71          1           0       11.866952   -2.634628   -2.618501
     72          6           0       13.219600    0.164669   -4.203502
     73          1           0       14.237344   -0.206338   -4.381862
     74          1           0       12.652849    0.037747   -5.132928
     75          1           0       13.286936    1.238869   -4.003833
 ---------------------------------------------------------------------

 SCF Done:  E(RHF) =  -1198.92202370     A.U. after    9 cycles

 Alpha  occ. eigenvalues --  -20.55911 -20.55584 -11.28035 -11.27886 -11.24930
 Alpha  occ. eigenvalues --  -11.24108 -11.23306 -11.22933 -11.22923 -11.22588
 Alpha  occ. eigenvalues --  -11.22558 -11.22530 -11.22517 -11.22363 -11.22291
 Alpha  occ. eigenvalues --  -11.22258 -11.22084 -11.21769 -11.21726 -11.21637
 Alpha  occ. eigenvalues --  -11.21554 -11.21495 -11.21291 -11.21188 -11.21117
 Alpha  occ. eigenvalues --  -11.21032 -11.20920 -11.20887 -11.20594  -1.35284
 Alpha  occ. eigenvalues --   -1.34776  -1.16110  -1.13918  -1.09686  -1.08051
 Alpha  occ. eigenvalues --   -1.05948  -1.05619  -1.03053  -1.01707  -0.99538
 Alpha  occ. eigenvalues --   -0.97918  -0.96171  -0.92711  -0.92513  -0.92059
 Alpha  occ. eigenvalues --   -0.91530  -0.90709  -0.86196  -0.84201  -0.83016
 Alpha  occ. eigenvalues --   -0.82871  -0.79369  -0.78463  -0.77355  -0.75221
 Alpha  occ. eigenvalues --   -0.72903  -0.71356  -0.69982  -0.67267  -0.66403
 Alpha  occ. eigenvalues --   -0.64377  -0.64355  -0.63665  -0.63617  -0.62818
 Alpha  occ. eigenvalues --   -0.62306  -0.61423  -0.60661  -0.60322  -0.59160
 Alpha  occ. eigenvalues --   -0.58914  -0.58323  -0.57938  -0.57473  -0.56288
 Alpha  occ. eigenvalues --   -0.56113  -0.55743  -0.55128  -0.54785  -0.54557
 Alpha  occ. eigenvalues --   -0.53885  -0.53580  -0.53221  -0.53033  -0.52742
 Alpha  occ. eigenvalues --   -0.52273  -0.52016  -0.51519  -0.51124  -0.50206
 Alpha  occ. eigenvalues --   -0.48868  -0.48416  -0.48176  -0.48034  -0.47553
 Alpha  occ. eigenvalues --   -0.46856  -0.46581  -0.46238  -0.46049  -0.45283
 Alpha  occ. eigenvalues --   -0.45032  -0.44930  -0.44417  -0.43831  -0.43426
 Alpha  occ. eigenvalues --   -0.42615  -0.42517  -0.41943  -0.41615  -0.40418
 Alpha  occ. eigenvalues --   -0.38651  -0.34024
 Alpha virt. eigenvalues --    0.16187   0.20094   0.21087   0.21929   0.22382
 Alpha virt. eigenvalues --    0.23260   0.23622   0.24176   0.24686   0.25525
 Alpha virt. eigenvalues --    0.25660   0.26335   0.26572   0.26864   0.27258

 Mulliken charges:
               1
     1  O   -0.763730
     2  H    0.429022
     3  O   -0.758953
     4  H    0.428123
     5  C   -0.031650
     6  C   -0.166714
     7  H    0.150320
     8  C   -0.167846
     9  H    0.154493
    10  C   -0.167598
    11  H    0.159582
    12  C   -0.146304
    13  H    0.155662
    14  C   -0.296194
    15  H    0.152628
    16  H    0.158362
    17  C   -0.040516
    18  C   -0.298671
    19  H    0.180739
    20  H    0.160825
    21  C   -0.327995
    22  H    0.164854
    23  H    0.167627
    24  C   -0.334606
    25  H    0.164973
    26  H    0.163539
    27  C    0.186003
    28  H    0.176558
    29  C   -0.149066
    30  H    0.159146
    31  C   -0.494985
    32  H    0.160367
    33  H    0.168218
    34  H    0.168357
    35  C    0.074402
    36  C   -0.326225
    37  H    0.166494
    38  H    0.173075
    39  C   -0.291246
    40  H    0.194090
    41  C   -0.477850
    42  H    0.167042
    43  H    0.162707
    44  H    0.165036
    45  C   -0.366061
    46  H    0.193928
    47  H    0.152381
    48  C   -0.340776
    49  H    0.144122
    50  H    0.183699
    51  C   -0.317616
    52  H    0.163618
    53  H    0.157543
    54  C    0.193762
    55  H    0.174256
    56  C   -0.484647
    57  H    0.155492
    58  H    0.162845
    59  H    0.157642
    60  C   -0.317387
    61  H    0.158900
    62  H    0.159662
    63  C   -0.303012
    64  H    0.154884
    65  H    0.151158
    66  C   -0.159947
    67  H    0.160701
    68  C   -0.471021
    69  H    0.153468
    70  H    0.157429
    71  H    0.156025
    72  C   -0.475929
    73  H    0.152589
    74  H    0.157759
    75  H    0.162438
 Sum of Mulliken charges =   0.00000

 Dipole moment (field-independent basis, Debye):
    X=              0.5578    Y=             -1.5281    Z=             -2.1454  Tot=              2.6924
 Quadrupole moment (field-independent basis, Debye-Ang):
   XX=           -192.8064   YY=           -196.4078   ZZ=           -182.0641
   XY=            -10.5896   XZ=             -2.9457   YZ=             -4.4369

 ESP charges:
               1
     1  O   -0.789613
     2  H    0.442972
     3  O   -0.742746
     4  H    0.421749
     5  C    0.338059
     6  C    0.258084
     7  H   -0.025043
     8  C   -0.501931
     9  H    0.146478
    10  C   -0.167753
    11  H    0.065689
    12  C   -0.067102
    13  H    0.019271
    14  C   -0.269743
    15  H    0.048710
    16  H    0.050572
    17  C    0.140391
    18  C   -0.315964
    19  H    0.100451
    20  H    0.080274
    21  C    0.150417
    22  H    0.009602
    23  H   -0.018192
    24  C   -0.006511
    25  H    0.015849
    26  H    0.020282
    27  C    0.799758
    28  H   -0.005036
    29  C    0.217408
    30  H   -0.001696
    31  C   -0.756732
    32  H    0.177474
    33  H    0.186690
    34  H    0.214749
    35  C    0.289699
    36  C   -0.021350
    37  H    0.014046
    38  H    0.069756
    39  C   -0.705863
    40  H    0.218975
    41  C   -0.341568
    42  H    0.082829
    43  H    0.087381
    44  H    0.091535
    45  C   -0.519693
    46  H    0.153017
    47  H    0.136415
    48  C   -0.390020
    49  H    0.099696
    50  H    0.101596
    51  C   -0.024540
    52  H    0.001187
    53  H    0.008106
    54  C    0.558613
    55  H    0.039282
    56  C   -0.498522
    57  H    0.115109
    58  H    0.128970
    59  H    0.103885
    60  C   -0.063974
    61  H    0.016686
    62  H    0.031598
    63  C   -0.182349
    64  H    0.030354
    65  H    0.031036
    66  C    0.592327
    67  H   -0.130051
    68  C   -0.527037
    69  H    0.106730
    70  H    0.117948
    71  H    0.104879
    72  C   -0.434062
    73  H    0.090298
    74  H    0.084918
    75  H    0.095295
 Sum of ESP charges =   0.00000

 Normal termination of Gaussian 09 at Thu May 18 13:08:40 2017.
