 Gaussian 09, Revision D.01,
 Gaussian 09:  EM64L-G09RevD.01 24-Apr-2013

 ----------------------------------------------------------------------
 #P HF/6-31G* SCF(Conver=6) NoSymm Test Pop=mk IOp(6/33=2) GFInput GFPr
 int
 ----------------------------------------------------------------------

 ----------------------------------------------
 MEP - Input generated by R.E.D.-III.x MOLECULE
 ----------------------------------------------
 Symbolic Z-matrix:
 Charge =  0 Multiplicity = 1

                          Input orientation:
 ---------------------------------------------------------------------
 Center     Atomic      Atomic             Coordinates (Angstroms)
 Number     Number       Type             X           Y           Z
 ---------------------------------------------------------------------
      1          8           0        6.125843    3.715443    0.000000
      2          1           0        5.857393    3.729067   -0.929539
      3          8           0        0.000000    0.000000    0.000000
      4          1           0       -0.111968   -0.166926   -0.946446
      5          6           0        8.827367    0.061153    0.418526
      6          6           0        7.904317    1.256063    0.796624
      7          1           0        7.683217    1.116580    1.869295
      8          6           0        6.532857    1.274569    0.098163
      9          1           0        6.673164    1.390188   -0.986656
     10          6           0        5.785569   -0.058377    0.382618
     11          1           0        5.574628   -0.055202    1.464762
     12          6           0       10.082582    0.392753    1.298705
     13          1           0        9.805644    0.133484    2.333219
     14          6           0        8.062747   -1.225234    0.788347
     15          1           0        7.934124   -1.255751    1.880035
     16          1           0        8.624492   -2.124577    0.516868
     17          6           0        4.384783   -0.146215   -0.317739
     18          6           0        8.823227    2.483860    0.700023
     19          1           0        8.455057    3.329294    1.285680
     20          1           0        8.887783    2.836925   -0.334674
     21          6           0        6.681692   -1.287893    0.108549
     22          1           0        6.827306   -1.406891   -0.970610
     23          1           0        6.170987   -2.196762    0.445569
     24          6           0       10.192355    1.953744    1.203346
     25          1           0       10.999896    2.239925    0.518998
     26          1           0       10.446440    2.387913    2.175080
     27          6           0        5.681139    2.468723    0.571138
     28          1           0        5.839921    2.614020    1.649167
     29          6           0       11.432757   -0.311116    1.006183
     30          1           0       11.750127    0.000000    0.000000
     31          6           0        9.204019    0.064050   -1.081183
     32          1           0        8.324760    0.051615   -1.730597
     33          1           0        9.792480    0.945324   -1.352807
     34          1           0        9.802434   -0.817532   -1.333003
     35          6           0        3.618983    1.166175   -0.117699
     36          6           0        3.564903   -1.295001    0.349119
     37          1           0        3.648509   -1.188155    1.439476
     38          1           0        4.016941   -2.259876    0.096314
     39          6           0        4.211997    2.291284    0.307688
     40          1           0        3.613008    3.188376    0.464233
     41          6           0        4.518142   -0.420415   -1.839762
     42          1           0        4.899696   -1.427976   -2.031580
     43          1           0        3.554244   -0.338895   -2.348857
     44          1           0        5.194561    0.297204   -2.314155
     45          6           0        2.130736    1.151724   -0.412209
     46          1           0        1.680098    2.109609   -0.134540
     47          1           0        1.966934    1.027207   -1.494941
     48          6           0        2.073387   -1.326537   -0.018704
     49          1           0        1.945355   -1.544730   -1.089400
     50          1           0        1.570458   -2.132647    0.527463
     51          6           0       12.531890    0.160896    2.008716
     52          1           0       12.171513    1.025772    2.575017
     53          1           0       12.696696   -0.626100    2.757012
     54          6           0        1.397810    0.006394    0.301944
     55          1           0        1.437471    0.178550    1.384457
     56          6           0       11.339181   -1.848045    1.013803
     57          1           0       10.913191   -2.208739    1.958381
     58          1           0       12.331254   -2.298046    0.910158
     59          1           0       10.721505   -2.235033    0.199452
     60          6           0       13.875673    0.569008    1.370231
     61          1           0       13.676660    1.361799    0.635940
     62          1           0       14.501430    1.034508    2.142576
     63          6           0       14.679131   -0.541142    0.667155
     64          1           0       15.523118   -0.073581    0.138560
     65          1           0       14.057552   -0.997181   -0.115382
     66          6           0       15.244574   -1.661475    1.566607
     67          1           0       14.412589   -2.109852    2.128144
     68          6           0       16.266368   -1.135232    2.587679
     69          1           0       17.115246   -0.659940    2.078946
     70          1           0       16.662643   -1.952839    3.200541
     71          1           0       15.829797   -0.397135    3.267985
     72          6           0       15.870283   -2.769727    0.704335
     73          1           0       16.710612   -2.379148    0.115989
     74          1           0       16.251637   -3.589559    1.323744
     75          1           0       15.141252   -3.190681    0.002256
 ---------------------------------------------------------------------

 SCF Done:  E(RHF) =  -1198.92228066     A.U. after    9 cycles

 Alpha  occ. eigenvalues --  -20.55904 -20.55577 -11.28028 -11.27896 -11.24892
 Alpha  occ. eigenvalues --  -11.24102 -11.23196 -11.22928 -11.22905 -11.22733
 Alpha  occ. eigenvalues --  -11.22576 -11.22524 -11.22399 -11.22274 -11.22257
 Alpha  occ. eigenvalues --  -11.22256 -11.21976 -11.21942 -11.21681 -11.21577
 Alpha  occ. eigenvalues --  -11.21567 -11.21432 -11.21239 -11.21055 -11.21042
 Alpha  occ. eigenvalues --  -11.20990 -11.20978 -11.20910 -11.20461  -1.35277
 Alpha  occ. eigenvalues --   -1.34766  -1.16065  -1.13860  -1.09629  -1.08043
 Alpha  occ. eigenvalues --   -1.05902  -1.05567  -1.03064  -1.01667  -0.99532
 Alpha  occ. eigenvalues --   -0.97921  -0.96257  -0.92878  -0.92403  -0.92286
 Alpha  occ. eigenvalues --   -0.91218  -0.90590  -0.86186  -0.83946  -0.82806
 Alpha  occ. eigenvalues --   -0.82248  -0.79367  -0.78615  -0.77083  -0.75152
 Alpha  occ. eigenvalues --   -0.73683  -0.72136  -0.69957  -0.67272  -0.66515
 Alpha  occ. eigenvalues --   -0.64434  -0.64065  -0.63856  -0.63396  -0.62548
 Alpha  occ. eigenvalues --   -0.61545  -0.61158  -0.60795  -0.60535  -0.59341
 Alpha  occ. eigenvalues --   -0.58736  -0.58403  -0.57610  -0.56602  -0.56380
 Alpha  occ. eigenvalues --   -0.56051  -0.55736  -0.55483  -0.54914  -0.54267
 Alpha  occ. eigenvalues --   -0.54101  -0.53969  -0.53238  -0.53011  -0.52865
 Alpha  occ. eigenvalues --   -0.52533  -0.52123  -0.50946  -0.50623  -0.50029
 Alpha  occ. eigenvalues --   -0.49143  -0.48522  -0.48047  -0.47958  -0.47232
 Alpha  occ. eigenvalues --   -0.46896  -0.46733  -0.46277  -0.46000  -0.45359
 Alpha  occ. eigenvalues --   -0.44955  -0.44769  -0.43900  -0.43663  -0.43268
 Alpha  occ. eigenvalues --   -0.43015  -0.42612  -0.42516  -0.41629  -0.40371
 Alpha  occ. eigenvalues --   -0.38444  -0.34021
 Alpha virt. eigenvalues --    0.16198   0.20845   0.21146   0.21907   0.22305
 Alpha virt. eigenvalues --    0.23033   0.23510   0.24617   0.24895   0.25640
 Alpha virt. eigenvalues --    0.25913   0.26203   0.26791   0.26882   0.27211

 Mulliken charges:
               1
     1  O   -0.763853
     2  H    0.429092
     3  O   -0.758983
     4  H    0.428118
     5  C   -0.030230
     6  C   -0.167480
     7  H    0.150093
     8  C   -0.167359
     9  H    0.154380
    10  C   -0.166961
    11  H    0.159312
    12  C   -0.143613
    13  H    0.152320
    14  C   -0.297789
    15  H    0.152284
    16  H    0.165087
    17  C   -0.040656
    18  C   -0.298799
    19  H    0.183909
    20  H    0.159225
    21  C   -0.327622
    22  H    0.163694
    23  H    0.166860
    24  C   -0.338260
    25  H    0.159488
    26  H    0.165599
    27  C    0.184419
    28  H    0.176620
    29  C   -0.136992
    30  H    0.157527
    31  C   -0.488249
    32  H    0.159660
    33  H    0.167568
    34  H    0.162461
    35  C    0.074578
    36  C   -0.326064
    37  H    0.166499
    38  H    0.173000
    39  C   -0.290848
    40  H    0.193982
    41  C   -0.477640
    42  H    0.167276
    43  H    0.162543
    44  H    0.164613
    45  C   -0.366018
    46  H    0.193898
    47  H    0.152395
    48  C   -0.340775
    49  H    0.144090
    50  H    0.183664
    51  C   -0.324696
    52  H    0.167659
    53  H    0.158213
    54  C    0.193755
    55  H    0.174223
    56  C   -0.490821
    57  H    0.153793
    58  H    0.166307
    59  H    0.158331
    60  C   -0.312945
    61  H    0.155900
    62  H    0.157083
    63  C   -0.305216
    64  H    0.151434
    65  H    0.155901
    66  C   -0.152570
    67  H    0.155617
    68  C   -0.475679
    69  H    0.152025
    70  H    0.158148
    71  H    0.162135
    72  C   -0.472665
    73  H    0.152899
    74  H    0.158186
    75  H    0.156916
 Sum of Mulliken charges =   0.00000

 Dipole moment (field-independent basis, Debye):
    X=              0.4412    Y=             -1.7720    Z=             -1.8910  Tot=              2.6288
 Quadrupole moment (field-independent basis, Debye-Ang):
   XX=           -197.0967   YY=           -193.9141   ZZ=           -180.9447
   XY=            -10.2525   XZ=             -2.9382   YZ=             -3.1734

 ESP charges:
               1
     1  O   -0.797728
     2  H    0.449840
     3  O   -0.733563
     4  H    0.419916
     5  C    0.607759
     6  C    0.207426
     7  H   -0.028839
     8  C   -0.563898
     9  H    0.151450
    10  C   -0.239888
    11  H    0.092481
    12  C   -0.117176
    13  H   -0.006809
    14  C   -0.248244
    15  H    0.020230
    16  H    0.034107
    17  C    0.151202
    18  C   -0.188376
    19  H    0.087122
    20  H    0.049605
    21  C    0.162123
    22  H   -0.005828
    23  H   -0.017154
    24  C   -0.234779
    25  H    0.071254
    26  H    0.078612
    27  C    0.809832
    28  H    0.000933
    29  C    0.342212
    30  H   -0.008017
    31  C   -0.640724
    32  H    0.147252
    33  H    0.137354
    34  H    0.120464
    35  C    0.274396
    36  C   -0.059086
    37  H    0.023682
    38  H    0.075747
    39  C   -0.703611
    40  H    0.219932
    41  C   -0.339860
    42  H    0.089306
    43  H    0.084288
    44  H    0.097359
    45  C   -0.454184
    46  H    0.137973
    47  H    0.125128
    48  C   -0.339732
    49  H    0.091670
    50  H    0.094178
    51  C   -0.245189
    52  H    0.059706
    53  H    0.065161
    54  C    0.498954
    55  H    0.051785
    56  C   -0.439207
    57  H    0.083763
    58  H    0.100800
    59  H    0.091732
    60  C   -0.105478
    61  H    0.034141
    62  H    0.050271
    63  C   -0.101223
    64  H    0.019976
    65  H    0.010258
    66  C    0.511444
    67  H   -0.058202
    68  C   -0.480647
    69  H    0.105975
    70  H    0.100468
    71  H    0.103639
    72  C   -0.508347
    73  H    0.110311
    74  H    0.114528
    75  H    0.098041
 Sum of ESP charges =   0.00000

 Normal termination of Gaussian 09 at Thu May 18 12:38:46 2017.
