 Gaussian 09, Revision D.01,
 Gaussian 09:  EM64L-G09RevD.01 24-Apr-2013

 ----------------------------------------------------------------------
 #P HF/6-31G* SCF(Conver=6) NoSymm Test Pop=mk IOp(6/33=2) GFInput GFPr
 int
 ----------------------------------------------------------------------

 ----------------------------------------------
 MEP - Input generated by R.E.D.-III.x MOLECULE
 ----------------------------------------------
 Symbolic Z-matrix:
 Charge =  0 Multiplicity = 1

                          Input orientation:
 ---------------------------------------------------------------------
 Center     Atomic      Atomic             Coordinates (Angstroms)
 Number     Number       Type             X           Y           Z
 ---------------------------------------------------------------------
      1          8           0        0.000000    0.000000    0.000000
      2          1           0        0.967636    0.000000    0.000000
      3          8           0        1.631652   -2.813071    6.384052
      4          1           0        2.569034   -2.582788    6.450743
      5          6           0       -1.200599    4.086419    1.651094
      6          6           0       -1.280760    2.599391    1.191867
      7          1           0       -2.255065    2.237377    1.562506
      8          6           0       -0.237985    1.659562    1.822834
      9          1           0        0.771461    1.957529    1.504160
     10          6           0       -0.334121    1.737344    3.373338
     11          1           0       -1.316218    1.307540    3.631014
     12          6           0       -2.395529    4.667178    0.817377
     13          1           0       -3.286540    4.215880    1.275570
     14          6           0       -1.379312    4.097687    3.180267
     15          1           0       -2.390876    3.744121    3.424490
     16          1           0       -1.295518    5.113412    3.584588
     17          6           0        0.722844    0.836966    4.103709
     18          6           0       -1.402620    2.686801   -0.341405
     19          1           0       -1.868177    1.797090   -0.771445
     20          1           0       -0.412361    2.764140   -0.802672
     21          6           0       -0.344102    3.198264    3.881949
     22          1           0        0.649403    3.642266    3.758082
     23          1           0       -0.547512    3.209377    4.958424
     24          6           0       -2.235256    3.978763   -0.574813
     25          1           0       -1.733188    4.639678   -1.288998
     26          1           0       -3.219533    3.758740   -1.003142
     27          6           0       -0.443172    0.205081    1.356192
     28          1           0       -1.521303   -0.003215    1.303688
     29          6           0       -2.731515    6.182670    0.708942
     30          1           0       -3.573520    6.207069    0.000000
     31          6           0        0.152609    4.730596    1.268858
     32          1           0        1.001759    4.124507    1.595239
     33          1           0        0.254066    4.869664    0.189782
     34          1           0        0.261143    5.712016    1.739499
     35          6           0        0.765447   -0.549624    3.452035
     36          6           0        0.286355    0.661423    5.592089
     37          1           0       -0.782525    0.407437    5.608690
     38          1           0        0.386518    1.617359    6.116787
     39          6           0        0.212174   -0.803878    2.257139
     40          1           0        0.242229   -1.816721    1.855489
     41          6           0        2.143675    1.459656    4.049936
     42          1           0        2.203558    2.369182    4.655506
     43          1           0        2.900281    0.768812    4.430871
     44          1           0        2.426909    1.713184    3.023783
     45          6           0        1.459476   -1.656614    4.223148
     46          1           0        1.334565   -2.613638    3.707200
     47          1           0        2.542867   -1.458536    4.264178
     48          6           0        1.051133   -0.421057    6.369544
     49          1           0        2.111156   -0.144890    6.471628
     50          1           0        0.650150   -0.505213    7.385993
     51          6           0       -3.240841    6.828702    2.020695
     52          1           0       -2.434414    6.816690    2.764972
     53          1           0       -3.424875    7.891507    1.812687
     54          6           0        0.954900   -1.775972    5.668876
     55          1           0       -0.092916   -2.099878    5.654526
     56          6           0       -1.649545    7.093571    0.094087
     57          1           0       -0.848767    7.319775    0.804306
     58          1           0       -2.098244    8.049126   -0.200611
     59          1           0       -1.191456    6.661172   -0.800142
     60          6           0       -4.507039    6.228021    2.662188
     61          1           0       -4.307423    5.199745    2.986305
     62          1           0       -4.714190    6.785962    3.584464
     63          6           0       -5.770736    6.213501    1.780601
     64          1           0       -6.584373    5.745774    2.354676
     65          1           0       -5.602744    5.556711    0.916431
     66          6           0       -6.270042    7.579118    1.263085
     67          1           0       -5.463675    8.040891    0.675018
     68          6           0       -6.631191    8.543520    2.404154
     69          1           0       -7.419355    8.117404    3.038615
     70          1           0       -7.002704    9.495740    2.008730
     71          1           0       -5.771996    8.766380    3.044995
     72          6           0       -7.470206    7.383634    0.322643
     73          1           0       -8.315040    6.929407    0.856256
     74          1           0       -7.813272    8.339498   -0.089470
     75          1           0       -7.216811    6.727501   -0.518013
 ---------------------------------------------------------------------

 SCF Done:  E(RHF) =  -1198.91971507     A.U. after    9 cycles

 Alpha  occ. eigenvalues --  -20.55909 -20.55581 -11.28033 -11.27901 -11.24909
 Alpha  occ. eigenvalues --  -11.24107 -11.23247 -11.22933 -11.22916 -11.22770
 Alpha  occ. eigenvalues --  -11.22582 -11.22539 -11.22438 -11.22423 -11.22279
 Alpha  occ. eigenvalues --  -11.22260 -11.22016 -11.21910 -11.21697 -11.21678
 Alpha  occ. eigenvalues --  -11.21569 -11.21481 -11.21427 -11.21044 -11.21034
 Alpha  occ. eigenvalues --  -11.20929 -11.20905 -11.20841 -11.20514  -1.35282
 Alpha  occ. eigenvalues --   -1.34774  -1.16070  -1.13846  -1.09692  -1.08013
 Alpha  occ. eigenvalues --   -1.05918  -1.05616  -1.03086  -1.01660  -0.99606
 Alpha  occ. eigenvalues --   -0.97890  -0.96327  -0.92596  -0.92469  -0.92358
 Alpha  occ. eigenvalues --   -0.91513  -0.90545  -0.86192  -0.84037  -0.82975
 Alpha  occ. eigenvalues --   -0.82701  -0.79319  -0.78698  -0.77051  -0.74916
 Alpha  occ. eigenvalues --   -0.73708  -0.71413  -0.69897  -0.67248  -0.66143
 Alpha  occ. eigenvalues --   -0.64826  -0.64139  -0.63838  -0.63424  -0.62612
 Alpha  occ. eigenvalues --   -0.62102  -0.61307  -0.60684  -0.59896  -0.59474
 Alpha  occ. eigenvalues --   -0.58716  -0.57918  -0.57885  -0.57532  -0.56766
 Alpha  occ. eigenvalues --   -0.56032  -0.55873  -0.55235  -0.55120  -0.54375
 Alpha  occ. eigenvalues --   -0.54257  -0.53686  -0.53167  -0.52850  -0.52783
 Alpha  occ. eigenvalues --   -0.52167  -0.51634  -0.50930  -0.50715  -0.50277
 Alpha  occ. eigenvalues --   -0.49267  -0.48672  -0.48359  -0.48060  -0.47351
 Alpha  occ. eigenvalues --   -0.46882  -0.46701  -0.46295  -0.46040  -0.45217
 Alpha  occ. eigenvalues --   -0.45096  -0.44493  -0.44297  -0.44165  -0.43401
 Alpha  occ. eigenvalues --   -0.42590  -0.42525  -0.41980  -0.41668  -0.40308
 Alpha  occ. eigenvalues --   -0.38465  -0.34024
 Alpha virt. eigenvalues --    0.16193   0.19832   0.20964   0.22090   0.22214
 Alpha virt. eigenvalues --    0.22983   0.23665   0.23954   0.24779   0.25181
 Alpha virt. eigenvalues --    0.25785   0.26138   0.26527   0.26756   0.27158

 Mulliken charges:
               1
     1  O   -0.763713
     2  H    0.429130
     3  O   -0.758945
     4  H    0.428125
     5  C   -0.022034
     6  C   -0.169814
     7  H    0.149960
     8  C   -0.167997
     9  H    0.154167
    10  C   -0.167015
    11  H    0.159154
    12  C   -0.155079
    13  H    0.159254
    14  C   -0.302080
    15  H    0.154061
    16  H    0.162723
    17  C   -0.040720
    18  C   -0.297718
    19  H    0.183222
    20  H    0.159503
    21  C   -0.327502
    22  H    0.165203
    23  H    0.167004
    24  C   -0.332755
    25  H    0.159068
    26  H    0.162217
    27  C    0.185377
    28  H    0.176517
    29  C   -0.146906
    30  H    0.157333
    31  C   -0.485325
    32  H    0.158845
    33  H    0.168673
    34  H    0.160813
    35  C    0.074556
    36  C   -0.326108
    37  H    0.166458
    38  H    0.172992
    39  C   -0.290954
    40  H    0.194048
    41  C   -0.477501
    42  H    0.167289
    43  H    0.162555
    44  H    0.164735
    45  C   -0.366045
    46  H    0.193923
    47  H    0.152422
    48  C   -0.340746
    49  H    0.144145
    50  H    0.183683
    51  C   -0.309185
    52  H    0.155334
    53  H    0.156155
    54  C    0.193743
    55  H    0.174231
    56  C   -0.481464
    57  H    0.155601
    58  H    0.157312
    59  H    0.161185
    60  C   -0.320057
    61  H    0.160848
    62  H    0.158556
    63  C   -0.303505
    64  H    0.151186
    65  H    0.155858
    66  C   -0.152059
    67  H    0.155616
    68  C   -0.476870
    69  H    0.152143
    70  H    0.158407
    71  H    0.161903
    72  C   -0.471643
    73  H    0.152584
    74  H    0.158199
    75  H    0.157724
 Sum of Mulliken charges =   0.00000

 Dipole moment (field-independent basis, Debye):
    X=              1.6995    Y=              1.8816    Z=              1.0117  Tot=              2.7299
 Quadrupole moment (field-independent basis, Debye-Ang):
   XX=           -179.2948   YY=           -193.6759   ZZ=           -190.0695
   XY=              0.3615   XZ=              4.0917   YZ=             12.2469

 ESP charges:
               1
     1  O   -0.789378
     2  H    0.447762
     3  O   -0.741439
     4  H    0.420492
     5  C    0.746243
     6  C    0.073574
     7  H   -0.036233
     8  C   -0.405182
     9  H    0.106628
    10  C   -0.164277
    11  H    0.059913
    12  C   -0.118253
    13  H    0.017437
    14  C   -0.292437
    15  H    0.060383
    16  H    0.050047
    17  C    0.222749
    18  C   -0.073388
    19  H    0.067518
    20  H    0.017908
    21  C   -0.013226
    22  H    0.032431
    23  H    0.021325
    24  C   -0.290938
    25  H    0.075742
    26  H    0.072876
    27  C    0.733830
    28  H    0.009054
    29  C    0.374542
    30  H   -0.032778
    31  C   -0.656117
    32  H    0.136313
    33  H    0.148040
    34  H    0.125500
    35  C    0.214021
    36  C   -0.065197
    37  H    0.021976
    38  H    0.076140
    39  C   -0.667370
    40  H    0.217429
    41  C   -0.293400
    42  H    0.069055
    43  H    0.068881
    44  H    0.077800
    45  C   -0.454122
    46  H    0.136382
    47  H    0.124403
    48  C   -0.383562
    49  H    0.097386
    50  H    0.105745
    51  C   -0.226532
    52  H    0.028213
    53  H    0.054939
    54  C    0.537693
    55  H    0.042038
    56  C   -0.532791
    57  H    0.109026
    58  H    0.116691
    59  H    0.120141
    60  C    0.015552
    61  H   -0.024342
    62  H    0.025112
    63  C   -0.191336
    64  H    0.041735
    65  H    0.033534
    66  C    0.478480
    67  H   -0.058601
    68  C   -0.428155
    69  H    0.094503
    70  H    0.089997
    71  H    0.091095
    72  C   -0.475264
    73  H    0.103793
    74  H    0.107874
    75  H    0.094378
 Sum of ESP charges =   0.00000

 Normal termination of Gaussian 09 at Thu May 18 13:18:15 2017.
