 Gaussian 09, Revision D.01,
 Gaussian 09:  EM64L-G09RevD.01 24-Apr-2013

 ----------------------------------------------------------------------
 #P HF/6-31G* SCF(Conver=6) NoSymm Test Pop=mk IOp(6/33=2) GFInput GFPr
 int
 ----------------------------------------------------------------------

 ----------------------------------------------
 MEP - Input generated by R.E.D.-III.x MOLECULE
 ----------------------------------------------
 Symbolic Z-matrix:
 Charge =  0 Multiplicity = 1

                          Input orientation:
 ---------------------------------------------------------------------
 Center     Atomic      Atomic             Coordinates (Angstroms)
 Number     Number       Type             X           Y           Z
 ---------------------------------------------------------------------
      1          8           0        6.097891    3.761577    0.000000
      2          1           0        5.831780    3.771515   -0.930271
      3          8           0        0.000000    0.000000    0.000000
      4          1           0       -0.109638   -0.169005   -0.946350
      5          6           0        8.825701    0.127287    0.423332
      6          6           0        7.894241    1.316114    0.799619
      7          1           0        7.672398    1.173565    1.871616
      8          6           0        6.523177    1.323789    0.100324
      9          1           0        6.662858    1.438843   -0.984715
     10          6           0        5.785724   -0.014204    0.387331
     11          1           0        5.573888   -0.009645    1.469292
     12          6           0       10.075951    0.474628    1.304199
     13          1           0        9.782077    0.238101    2.337513
     14          6           0        8.071551   -1.163776    0.796924
     15          1           0        7.943914   -1.193912    1.888718
     16          1           0        8.640570   -2.058859    0.525868
     17          6           0        4.386067   -0.113739   -0.314022
     18          6           0        8.802989    2.552982    0.706967
     19          1           0        8.436052    3.385192    1.312169
     20          1           0        8.847495    2.923960   -0.322414
     21          6           0        6.690709   -1.238312    0.117643
     22          1           0        6.837161   -1.360092   -0.961048
     23          1           0        6.186241   -2.149481    0.457816
     24          6           0       10.187373    2.029077    1.176958
     25          1           0       10.967733    2.297275    0.454810
     26          1           0       10.485549    2.478230    2.129896
     27          6           0        5.662310    2.512003    0.571780
     28          1           0        5.819463    2.659246    1.649802
     29          6           0       11.422561   -0.241182    1.031901
     30          1           0       11.716943    0.000000    0.000000
     31          6           0        9.203879    0.124571   -1.075339
     32          1           0        8.325998    0.093290   -1.725956
     33          1           0        9.779572    1.012275   -1.353495
     34          1           0        9.815750   -0.750873   -1.317746
     35          6           0        3.610328    1.193074   -0.116176
     36          6           0        3.574336   -1.267613    0.353983
     37          1           0        3.656451   -1.158448    1.444222
     38          1           0        4.033755   -2.229481    0.102951
     39          6           0        4.194693    2.323209    0.307888
     40          1           0        3.588941    3.216000    0.462990
     41          6           0        4.522761   -0.389069   -1.835501
     42          1           0        4.912962   -1.393657   -2.025516
     43          1           0        3.558634   -0.316402   -2.345508
     44          1           0        5.193443    0.333591   -2.310318
     45          6           0        2.122377    1.167271   -0.411474
     46          1           0        1.664623    2.122143   -0.135063
     47          1           0        1.960100    1.040601   -1.494168
     48          6           0        2.083315   -1.310867   -0.014717
     49          1           0        1.957740   -1.531754   -1.085153
     50          1           0        1.586131   -2.119936    0.532332
     51          6           0       12.570948    0.302409    1.925752
     52          1           0       13.498974   -0.176259    1.586398
     53          1           0       12.702949    1.375242    1.736243
     54          6           0        1.397400    0.017367    0.303416
     55          1           0        1.434587    0.191237    1.385747
     56          6           0       11.345657   -1.776056    1.137518
     57          1           0       10.898827   -2.099044    2.084484
     58          1           0       12.348957   -2.214434    1.077571
     59          1           0       10.753722   -2.213174    0.329425
     60          6           0       12.416530    0.088701    3.440964
     61          1           0       11.471200    0.532822    3.777525
     62          1           0       12.339207   -0.982334    3.664433
     63          6           0       13.547176    0.714086    4.280365
     64          1           0       13.290521    0.612166    5.345384
     65          1           0       13.573824    1.794692    4.078168
     66          6           0       14.967579    0.145577    4.074527
     67          1           0       15.234784    0.257682    3.014090
     68          6           0       15.058918   -1.347199    4.428801
     69          1           0       14.779351   -1.516066    5.476999
     70          1           0       16.080908   -1.719505    4.294192
     71          1           0       14.400494   -1.961211    3.805892
     72          6           0       15.985741    0.956223    4.892620
     73          1           0       15.773218    0.880651    5.966890
     74          1           0       17.006966    0.592951    4.730074
     75          1           0       15.960379    2.018245    4.622704
 ---------------------------------------------------------------------

 SCF Done:  E(RHF) =  -1198.92687163     A.U. after    9 cycles

 Alpha  occ. eigenvalues --  -20.55904 -20.55576 -11.28027 -11.27894 -11.24893
 Alpha  occ. eigenvalues --  -11.24099 -11.23201 -11.22927 -11.22905 -11.22731
 Alpha  occ. eigenvalues --  -11.22576 -11.22528 -11.22310 -11.22308 -11.22275
 Alpha  occ. eigenvalues --  -11.22253 -11.21984 -11.21826 -11.21676 -11.21588
 Alpha  occ. eigenvalues --  -11.21443 -11.21361 -11.21273 -11.21049 -11.20969
 Alpha  occ. eigenvalues --  -11.20960 -11.20940 -11.20940 -11.20466  -1.35277
 Alpha  occ. eigenvalues --   -1.34765  -1.16072  -1.13882  -1.09631  -1.08058
 Alpha  occ. eigenvalues --   -1.05918  -1.05652  -1.03063  -1.01643  -0.99501
 Alpha  occ. eigenvalues --   -0.97903  -0.96269  -0.92868  -0.92314  -0.92268
 Alpha  occ. eigenvalues --   -0.90946  -0.90631  -0.86188  -0.84080  -0.82892
 Alpha  occ. eigenvalues --   -0.82804  -0.79235  -0.78556  -0.77008  -0.75396
 Alpha  occ. eigenvalues --   -0.73201  -0.71475  -0.69972  -0.67284  -0.66513
 Alpha  occ. eigenvalues --   -0.64658  -0.64104  -0.63940  -0.63375  -0.62595
 Alpha  occ. eigenvalues --   -0.62050  -0.61115  -0.60804  -0.60522  -0.59038
 Alpha  occ. eigenvalues --   -0.58755  -0.57789  -0.57680  -0.57020  -0.56255
 Alpha  occ. eigenvalues --   -0.56194  -0.55895  -0.55328  -0.54877  -0.54302
 Alpha  occ. eigenvalues --   -0.53986  -0.53766  -0.53256  -0.53106  -0.52845
 Alpha  occ. eigenvalues --   -0.52706  -0.52137  -0.50919  -0.50561  -0.49763
 Alpha  occ. eigenvalues --   -0.49580  -0.48478  -0.48158  -0.47912  -0.47264
 Alpha  occ. eigenvalues --   -0.46989  -0.46586  -0.46144  -0.45892  -0.45195
 Alpha  occ. eigenvalues --   -0.44912  -0.44665  -0.44213  -0.43773  -0.43469
 Alpha  occ. eigenvalues --   -0.43078  -0.42536  -0.42056  -0.41686  -0.40388
 Alpha  occ. eigenvalues --   -0.38539  -0.34019
 Alpha virt. eigenvalues --    0.16201   0.20713   0.21082   0.22053   0.22251
 Alpha virt. eigenvalues --    0.22962   0.23983   0.24189   0.24746   0.25521
 Alpha virt. eigenvalues --    0.25789   0.26210   0.26654   0.27191   0.27459

 Mulliken charges:
               1
     1  O   -0.763723
     2  H    0.429032
     3  O   -0.758973
     4  H    0.428114
     5  C   -0.027928
     6  C   -0.167443
     7  H    0.149882
     8  C   -0.167129
     9  H    0.154354
    10  C   -0.167048
    11  H    0.159315
    12  C   -0.142031
    13  H    0.156169
    14  C   -0.297862
    15  H    0.152252
    16  H    0.164595
    17  C   -0.040627
    18  C   -0.298009
    19  H    0.182483
    20  H    0.160040
    21  C   -0.327684
    22  H    0.163735
    23  H    0.166927
    24  C   -0.339433
    25  H    0.158927
    26  H    0.165523
    27  C    0.184365
    28  H    0.176644
    29  C   -0.146757
    30  H    0.156600
    31  C   -0.488338
    32  H    0.159825
    33  H    0.167604
    34  H    0.162016
    35  C    0.074498
    36  C   -0.326091
    37  H    0.166486
    38  H    0.172987
    39  C   -0.290781
    40  H    0.193990
    41  C   -0.477593
    42  H    0.167245
    43  H    0.162549
    44  H    0.164636
    45  C   -0.365984
    46  H    0.193896
    47  H    0.152390
    48  C   -0.340762
    49  H    0.144077
    50  H    0.183661
    51  C   -0.314154
    52  H    0.156558
    53  H    0.161252
    54  C    0.193741
    55  H    0.174228
    56  C   -0.486952
    57  H    0.157433
    58  H    0.157091
    59  H    0.160992
    60  C   -0.319208
    61  H    0.159786
    62  H    0.159296
    63  C   -0.297728
    64  H    0.150469
    65  H    0.151952
    66  C   -0.152243
    67  H    0.156466
    68  C   -0.476639
    69  H    0.151898
    70  H    0.157972
    71  H    0.161071
    72  C   -0.471727
    73  H    0.152120
    74  H    0.157708
    75  H    0.158000
 Sum of Mulliken charges =   0.00000

 Dipole moment (field-independent basis, Debye):
    X=              0.4926    Y=             -1.8126    Z=             -2.0615  Tot=              2.7889
 Quadrupole moment (field-independent basis, Debye-Ang):
   XX=           -195.6997   YY=           -194.1368   ZZ=           -181.9436
   XY=            -11.2033   XZ=             -5.8528   YZ=             -2.9864

 ESP charges:
               1
     1  O   -0.786021
     2  H    0.446402
     3  O   -0.734480
     4  H    0.420103
     5  C    0.579218
     6  C    0.146641
     7  H   -0.020828
     8  C   -0.464152
     9  H    0.137897
    10  C   -0.265960
    11  H    0.091507
    12  C    0.132018
    13  H   -0.072681
    14  C   -0.274074
    15  H    0.028836
    16  H    0.038721
    17  C    0.163354
    18  C   -0.309229
    19  H    0.111868
    20  H    0.077508
    21  C    0.174771
    22  H   -0.008964
    23  H   -0.016753
    24  C   -0.132374
    25  H    0.041028
    26  H    0.053337
    27  C    0.767812
    28  H    0.010104
    29  C    0.101491
    30  H   -0.002153
    31  C   -0.633408
    32  H    0.143533
    33  H    0.130626
    34  H    0.128612
    35  C    0.265668
    36  C   -0.059169
    37  H    0.024576
    38  H    0.075113
    39  C   -0.697245
    40  H    0.221338
    41  C   -0.342915
    42  H    0.089879
    43  H    0.084643
    44  H    0.096271
    45  C   -0.451782
    46  H    0.136872
    47  H    0.124265
    48  C   -0.344980
    49  H    0.092536
    50  H    0.095274
    51  C   -0.174203
    52  H    0.058750
    53  H    0.017675
    54  C    0.502349
    55  H    0.051171
    56  C   -0.374715
    57  H    0.072414
    58  H    0.095708
    59  H    0.082031
    60  C    0.090082
    61  H    0.018696
    62  H    0.008512
    63  C   -0.341256
    64  H    0.061473
    65  H    0.076759
    66  C    0.563895
    67  H   -0.072414
    68  C   -0.494303
    69  H    0.110502
    70  H    0.099856
    71  H    0.112087
    72  C   -0.500412
    73  H    0.113270
    74  H    0.110487
    75  H    0.096937
 Sum of ESP charges =   0.00000

 Normal termination of Gaussian 09 at Thu May 18 13:31:24 2017.
