 Gaussian 09, Revision D.01,
 Gaussian 09:  EM64L-G09RevD.01 24-Apr-2013

 ----------------------------------------------------------------------
 #P HF/6-31G* SCF(Conver=6) NoSymm Test Pop=mk IOp(6/33=2) GFInput GFPr
 int
 ----------------------------------------------------------------------

 ----------------------------------------------
 MEP - Input generated by R.E.D.-III.x MOLECULE
 ----------------------------------------------
 Symbolic Z-matrix:
 Charge =  0 Multiplicity = 1

                          Input orientation:
 ---------------------------------------------------------------------
 Center     Atomic      Atomic             Coordinates (Angstroms)
 Number     Number       Type             X           Y           Z
 ---------------------------------------------------------------------
      1          8           0        0.000000    0.000000    0.000000
      2          1           0        0.967632    0.000000    0.000000
      3          8           0        1.635979   -2.666975    6.445807
      4          1           0        2.574088   -2.437664    6.505221
      5          6           0       -1.191838    4.123686    1.549141
      6          6           0       -1.285667    2.625161    1.139440
      7          1           0       -2.257653    2.283601    1.536047
      8          6           0       -0.237926    1.700585    1.784735
      9          1           0        0.768704    1.995700    1.453570
     10          6           0       -0.326470    1.814285    3.332520
     11          1           0       -1.308581    1.393801    3.604913
     12          6           0       -2.376264    4.709546    0.704892
     13          1           0       -3.293529    4.374283    1.211397
     14          6           0       -1.359515    4.177311    3.080174
     15          1           0       -2.374958    3.841194    3.335390
     16          1           0       -1.264800    5.198507    3.463037
     17          6           0        0.731117    0.929506    4.080423
     18          6           0       -1.431056    2.659544   -0.390961
     19          1           0       -1.904568    1.756950   -0.784136
     20          1           0       -0.448890    2.719841   -0.871552
     21          6           0       -0.329115    3.287465    3.801440
     22          1           0        0.666722    3.722013    3.662723
     23          1           0       -0.528848    3.329503    4.877917
     24          6           0       -2.265899    3.942609   -0.653272
     25          1           0       -1.779804    4.572489   -1.407828
     26          1           0       -3.258635    3.703604   -1.048263
     27          6           0       -0.442835    0.235871    1.351407
     28          1           0       -1.521025    0.026683    1.303910
     29          6           0       -2.491170    6.242488    0.513217
     30          1           0       -1.577669    6.576972    0.000000
     31          6           0        0.146283    4.769766    1.123506
     32          1           0        1.011882    4.246086    1.537654
     33          1           0        0.267017    4.781922    0.036270
     34          1           0        0.201539    5.807278    1.469995
     35          6           0        0.767951   -0.472463    3.462255
     36          6           0        0.299950    0.791885    5.574227
     37          1           0       -0.769733    0.542191    5.601128
     38          1           0        0.405331    1.760118    6.074824
     39          6           0        0.211945   -0.753200    2.274578
     40          1           0        0.238746   -1.775251    1.896724
     41          6           0        2.153648    1.546277    4.006161
     42          1           0        2.218784    2.470061    4.589213
     43          1           0        2.909373    0.862298    4.401073
     44          1           0        2.433663    1.773754    2.973030
     45          6           0        1.460614   -1.562734    4.258055
     46          1           0        1.330916   -2.531654    3.766034
     47          1           0        2.544762   -1.367373    4.290932
     48          6           0        1.063730   -0.273992    6.375134
     49          1           0        2.125143    0.000632    6.467108
     50          1           0        0.665924   -0.332082    7.394654
     51          6           0       -3.660698    6.628638   -0.431835
     52          1           0       -3.611248    7.715273   -0.592385
     53          1           0       -3.496815    6.175349   -1.417367
     54          6           0        0.960388   -1.645139    5.707856
     55          1           0       -0.088568   -1.965661    5.704910
     56          6           0       -2.587634    7.031131    1.832951
     57          1           0       -3.376495    6.641555    2.486125
     58          1           0       -2.813773    8.085263    1.632849
     59          1           0       -1.651580    7.002754    2.396510
     60          6           0       -5.079084    6.271744    0.043842
     61          1           0       -5.161112    5.186229    0.177928
     62          1           0       -5.262272    6.720449    1.027627
     63          6           0       -6.152639    6.749525   -0.947948
     64          1           0       -5.943357    6.306448   -1.932464
     65          1           0       -6.050316    7.836669   -1.078580
     66          6           0       -7.622998    6.441573   -0.580377
     67          1           0       -8.230959    6.857352   -1.397583
     68          6           0       -8.069617    7.140774    0.714390
     69          1           0       -7.552991    6.735273    1.591995
     70          1           0       -9.145052    7.007374    0.878495
     71          1           0       -7.868804    8.217971    0.676114
     72          6           0       -7.916805    4.933241   -0.522856
     73          1           0       -7.394116    4.450679    0.311094
     74          1           0       -8.988637    4.749792   -0.385709
     75          1           0       -7.607721    4.430790   -1.447015
 ---------------------------------------------------------------------

 SCF Done:  E(RHF) =  -1198.92703883     A.U. after    9 cycles

 Alpha  occ. eigenvalues --  -20.55898 -20.55568 -11.28022 -11.27886 -11.24886
 Alpha  occ. eigenvalues --  -11.24092 -11.23194 -11.22921 -11.22898 -11.22714
 Alpha  occ. eigenvalues --  -11.22572 -11.22520 -11.22430 -11.22267 -11.22265
 Alpha  occ. eigenvalues --  -11.22246 -11.21974 -11.21816 -11.21665 -11.21577
 Alpha  occ. eigenvalues --  -11.21406 -11.21306 -11.21234 -11.21034 -11.20958
 Alpha  occ. eigenvalues --  -11.20955 -11.20942 -11.20897 -11.20456  -1.35270
 Alpha  occ. eigenvalues --   -1.34758  -1.16063  -1.13872  -1.09563  -1.08035
 Alpha  occ. eigenvalues --   -1.05918  -1.05671  -1.03053  -1.01653  -0.99473
 Alpha  occ. eigenvalues --   -0.97889  -0.96256  -0.92855  -0.92311  -0.92256
 Alpha  occ. eigenvalues --   -0.90868  -0.90610  -0.86181  -0.84458  -0.83023
 Alpha  occ. eigenvalues --   -0.82803  -0.79049  -0.78437  -0.76922  -0.74603
 Alpha  occ. eigenvalues --   -0.73537  -0.71642  -0.69957  -0.67273  -0.66490
 Alpha  occ. eigenvalues --   -0.64537  -0.63941  -0.63919  -0.63292  -0.62654
 Alpha  occ. eigenvalues --   -0.62076  -0.61127  -0.60958  -0.60625  -0.59113
 Alpha  occ. eigenvalues --   -0.58754  -0.58470  -0.57684  -0.57196  -0.56451
 Alpha  occ. eigenvalues --   -0.56085  -0.55490  -0.55465  -0.54554  -0.54475
 Alpha  occ. eigenvalues --   -0.54158  -0.53448  -0.53291  -0.52762  -0.52715
 Alpha  occ. eigenvalues --   -0.52256  -0.51706  -0.51406  -0.50888  -0.50222
 Alpha  occ. eigenvalues --   -0.48591  -0.48430  -0.48224  -0.47838  -0.47291
 Alpha  occ. eigenvalues --   -0.46952  -0.46719  -0.46255  -0.45892  -0.45205
 Alpha  occ. eigenvalues --   -0.44993  -0.44776  -0.44484  -0.43482  -0.43425
 Alpha  occ. eigenvalues --   -0.42882  -0.42555  -0.42313  -0.41567  -0.40360
 Alpha  occ. eigenvalues --   -0.38516  -0.34011
 Alpha virt. eigenvalues --    0.16207   0.20734   0.21076   0.22092   0.22236
 Alpha virt. eigenvalues --    0.22857   0.24074   0.24275   0.24800   0.25472
 Alpha virt. eigenvalues --    0.25756   0.26309   0.26619   0.27129   0.27479

 Mulliken charges:
               1
     1  O   -0.763720
     2  H    0.429026
     3  O   -0.758991
     4  H    0.428107
     5  C   -0.028211
     6  C   -0.167283
     7  H    0.149799
     8  C   -0.167239
     9  H    0.154345
    10  C   -0.167026
    11  H    0.159291
    12  C   -0.141362
    13  H    0.155811
    14  C   -0.297792
    15  H    0.152030
    16  H    0.164713
    17  C   -0.040621
    18  C   -0.298041
    19  H    0.182471
    20  H    0.159992
    21  C   -0.327687
    22  H    0.163760
    23  H    0.166899
    24  C   -0.339506
    25  H    0.159063
    26  H    0.165538
    27  C    0.184437
    28  H    0.176637
    29  C   -0.147171
    30  H    0.156548
    31  C   -0.488375
    32  H    0.159762
    33  H    0.167630
    34  H    0.162123
    35  C    0.074456
    36  C   -0.326047
    37  H    0.166479
    38  H    0.172998
    39  C   -0.290775
    40  H    0.193973
    41  C   -0.477616
    42  H    0.167227
    43  H    0.162533
    44  H    0.164664
    45  C   -0.365958
    46  H    0.193898
    47  H    0.152400
    48  C   -0.340796
    49  H    0.144064
    50  H    0.183654
    51  C   -0.309166
    52  H    0.152020
    53  H    0.161995
    54  C    0.193739
    55  H    0.174229
    56  C   -0.486150
    57  H    0.156720
    58  H    0.157583
    59  H    0.160583
    60  C   -0.321503
    61  H    0.159676
    62  H    0.160049
    63  C   -0.300157
    64  H    0.151655
    65  H    0.150931
    66  C   -0.146083
    67  H    0.155288
    68  C   -0.476052
    69  H    0.155322
    70  H    0.158131
    71  H    0.156638
    72  C   -0.476219
    73  H    0.155053
    74  H    0.158267
    75  H    0.157342
 Sum of Mulliken charges =   0.00000

 Dipole moment (field-independent basis, Debye):
    X=              1.7140    Y=              1.9583    Z=              0.8547  Tot=              2.7392
 Quadrupole moment (field-independent basis, Debye-Ang):
   XX=           -178.5324   YY=           -192.5442   ZZ=           -190.8305
   XY=              0.3427   XZ=              4.6163   YZ=             11.7773

 ESP charges:
               1
     1  O   -0.775760
     2  H    0.444782
     3  O   -0.739466
     4  H    0.420680
     5  C    0.653095
     6  C    0.176337
     7  H   -0.025209
     8  C   -0.478282
     9  H    0.123463
    10  C   -0.107072
    11  H    0.042692
    12  C    0.017393
    13  H   -0.072795
    14  C   -0.247379
    15  H    0.026100
    16  H    0.042552
    17  C    0.194168
    18  C   -0.339484
    19  H    0.114516
    20  H    0.077082
    21  C    0.040068
    22  H    0.010400
    23  H    0.002698
    24  C   -0.055126
    25  H    0.026983
    26  H    0.035352
    27  C    0.725495
    28  H    0.008146
    29  C    0.114743
    30  H    0.010651
    31  C   -0.611025
    32  H    0.133022
    33  H    0.121248
    34  H    0.114496
    35  C    0.217615
    36  C   -0.073183
    37  H    0.024762
    38  H    0.078085
    39  C   -0.649600
    40  H    0.211411
    41  C   -0.289876
    42  H    0.068826
    43  H    0.070267
    44  H    0.076207
    45  C   -0.459610
    46  H    0.138968
    47  H    0.126298
    48  C   -0.375355
    49  H    0.096808
    50  H    0.105044
    51  C   -0.238670
    52  H    0.061585
    53  H    0.029917
    54  C    0.528246
    55  H    0.045486
    56  C   -0.383143
    57  H    0.069676
    58  H    0.100566
    59  H    0.082106
    60  C    0.266380
    61  H   -0.013587
    62  H   -0.013759
    63  C   -0.339861
    64  H    0.061859
    65  H    0.055471
    66  C    0.439599
    67  H   -0.049611
    68  C   -0.409831
    69  H    0.085436
    70  H    0.089798
    71  H    0.087349
    72  C   -0.408714
    73  H    0.086121
    74  H    0.090384
    75  H    0.085965
 Sum of ESP charges =   0.00000

 Normal termination of Gaussian 09 at Thu May 18 12:59:20 2017.
