 Gaussian 09, Revision D.01,
 Gaussian 09:  EM64L-G09RevD.01 24-Apr-2013

 ----------------------------------------------------------------------
 #P HF/6-31G* SCF(Conver=6) NoSymm Test Pop=mk IOp(6/33=2) GFInput GFPr
 int
 ----------------------------------------------------------------------

 ----------------------------------------------
 MEP - Input generated by R.E.D.-III.x MOLECULE
 ----------------------------------------------
 Symbolic Z-matrix:
 Charge =  0 Multiplicity = 1

                          Input orientation:
 ---------------------------------------------------------------------
 Center     Atomic      Atomic             Coordinates (Angstroms)
 Number     Number       Type             X           Y           Z
 ---------------------------------------------------------------------
      1          8           0        0.000000    0.000000    0.000000
      2          1           0        0.967634    0.000000    0.000000
      3          8           0        1.645153   -2.739698    6.412051
      4          1           0        2.583132   -2.510138    6.472537
      5          6           0       -1.193979    4.106050    1.595530
      6          6           0       -1.287596    2.611331    1.170971
      7          1           0       -2.259629    2.264873    1.563441
      8          6           0       -0.238421    1.679843    1.804307
      9          1           0        0.767334    1.979508    1.474752
     10          6           0       -0.323897    1.776332    3.353123
     11          1           0       -1.305970    1.354272    3.623114
     12          6           0       -2.380528    4.704568    0.761228
     13          1           0       -3.302311    4.386110    1.274047
     14          6           0       -1.356070    4.142017    3.128272
     15          1           0       -2.370636    3.802394    3.382422
     16          1           0       -1.260923    5.157985    3.523786
     17          6           0        0.734141    0.883095    4.089936
     18          6           0       -1.432057    2.663855   -0.357764
     19          1           0       -1.887520    1.758770   -0.765995
     20          1           0       -0.450547    2.751296   -0.835607
     21          6           0       -0.323377    3.244648    3.836225
     22          1           0        0.672281    3.679687    3.697230
     23          1           0       -0.518233    3.276715    4.913961
     24          6           0       -2.293092    3.932373   -0.599277
     25          1           0       -1.843816    4.568262   -1.371734
     26          1           0       -3.290907    3.667124   -0.961819
     27          6           0       -0.442734    0.220081    1.354200
     28          1           0       -1.520751    0.010606    1.304552
     29          6           0       -2.485962    6.240456    0.571209
     30          1           0       -1.603945    6.568352    0.000000
     31          6           0        0.143434    4.754381    1.169298
     32          1           0        1.010305    4.221600    1.568894
     33          1           0        0.255491    4.781397    0.081427
     34          1           0        0.206025    5.786668    1.528844
     35          6           0        0.771350   -0.511374    3.455285
     36          6           0        0.303126    0.727005    5.582007
     37          1           0       -0.766026    0.474775    5.605783
     38          1           0        0.406292    1.689524    6.094039
     39          6           0        0.213545   -0.778986    2.265433
     40          1           0        0.240601   -1.796628    1.875892
     41          6           0        2.156286    1.501562    4.022818
     42          1           0        2.222179    2.416507    4.619593
     43          1           0        2.913024    0.812174    4.406167
     44          1           0        2.434649    1.744778    2.992816
     45          6           0        1.465964   -1.610242    4.237486
     46          1           0        1.336832   -2.573439    3.734213
     47          1           0        2.549964   -1.414054    4.271551
     48          6           0        1.069091   -0.346928    6.370013
     49          1           0        2.130101   -0.071729    6.464448
     50          1           0        0.672050   -0.417595    7.389033
     51          6           0       -3.736064    6.594632   -0.275142
     52          1           0       -3.818186    5.890438   -1.108404
     53          1           0       -4.634563    6.440498    0.342760
     54          6           0        0.967327   -1.710335    5.686763
     55          1           0       -0.081140   -2.032435    5.681055
     56          6           0       -2.509768    7.016842    1.900299
     57          1           0       -3.304088    6.641136    2.557402
     58          1           0       -2.695461    8.082317    1.734554
     59          1           0       -1.564544    6.940614    2.442588
     60          6           0       -3.750049    8.022849   -0.844579
     61          1           0       -3.633267    8.750652   -0.032597
     62          1           0       -2.874362    8.158371   -1.493877
     63          6           0       -5.034833    8.388863   -1.611501
     64          1           0       -4.985518    9.452375   -1.888994
     65          1           0       -5.888435    8.295548   -0.924482
     66          6           0       -5.345409    7.575862   -2.886600
     67          1           0       -5.415931    6.513909   -2.611326
     68          6           0       -4.247486    7.714944   -3.953015
     69          1           0       -4.121137    8.765235   -4.246786
     70          1           0       -4.503471    7.146842   -4.854579
     71          1           0       -3.278195    7.349569   -3.598651
     72          6           0       -6.709371    7.992452   -3.460220
     73          1           0       -6.701477    9.048280   -3.760407
     74          1           0       -6.968160    7.398099   -4.343956
     75          1           0       -7.509609    7.862651   -2.722498
 ---------------------------------------------------------------------

 SCF Done:  E(RHF) =  -1198.92716264     A.U. after    9 cycles

 Alpha  occ. eigenvalues --  -20.55904 -20.55578 -11.28028 -11.27898 -11.24890
 Alpha  occ. eigenvalues --  -11.24100 -11.23191 -11.22928 -11.22904 -11.22759
 Alpha  occ. eigenvalues --  -11.22576 -11.22527 -11.22317 -11.22308 -11.22274
 Alpha  occ. eigenvalues --  -11.22255 -11.21973 -11.21954 -11.21681 -11.21573
 Alpha  occ. eigenvalues --  -11.21479 -11.21421 -11.21219 -11.21041 -11.21002
 Alpha  occ. eigenvalues --  -11.20941 -11.20935 -11.20848 -11.20452  -1.35276
 Alpha  occ. eigenvalues --   -1.34767  -1.16069  -1.13870  -1.09642  -1.08088
 Alpha  occ. eigenvalues --   -1.05922  -1.05702  -1.03066  -1.01701  -0.99514
 Alpha  occ. eigenvalues --   -0.97933  -0.96248  -0.92868  -0.92319  -0.92279
 Alpha  occ. eigenvalues --   -0.90955  -0.90593  -0.86188  -0.83993  -0.82821
 Alpha  occ. eigenvalues --   -0.82433  -0.79203  -0.78537  -0.77035  -0.74827
 Alpha  occ. eigenvalues --   -0.74194  -0.72056  -0.69943  -0.67258  -0.66438
 Alpha  occ. eigenvalues --   -0.64558  -0.64011  -0.63895  -0.63260  -0.63113
 Alpha  occ. eigenvalues --   -0.62055  -0.61080  -0.60701  -0.60313  -0.59060
 Alpha  occ. eigenvalues --   -0.58718  -0.57999  -0.57579  -0.57112  -0.56369
 Alpha  occ. eigenvalues --   -0.56050  -0.55933  -0.55346  -0.54708  -0.54389
 Alpha  occ. eigenvalues --   -0.54137  -0.53740  -0.53066  -0.52982  -0.52948
 Alpha  occ. eigenvalues --   -0.52438  -0.52173  -0.51085  -0.50592  -0.49680
 Alpha  occ. eigenvalues --   -0.48740  -0.48434  -0.48158  -0.47883  -0.47305
 Alpha  occ. eigenvalues --   -0.46840  -0.46600  -0.46191  -0.46079  -0.45358
 Alpha  occ. eigenvalues --   -0.45036  -0.44730  -0.44335  -0.43828  -0.43409
 Alpha  occ. eigenvalues --   -0.43335  -0.42519  -0.42353  -0.41580  -0.40383
 Alpha  occ. eigenvalues --   -0.38463  -0.34020
 Alpha virt. eigenvalues --    0.16202   0.20861   0.21215   0.21934   0.22350
 Alpha virt. eigenvalues --    0.23038   0.24103   0.24602   0.24865   0.25689
 Alpha virt. eigenvalues --    0.25862   0.26150   0.26774   0.26883   0.27493

 Mulliken charges:
               1
     1  O   -0.763802
     2  H    0.429074
     3  O   -0.758975
     4  H    0.428115
     5  C   -0.029787
     6  C   -0.167457
     7  H    0.150163
     8  C   -0.167367
     9  H    0.154331
    10  C   -0.166963
    11  H    0.159332
    12  C   -0.135686
    13  H    0.151768
    14  C   -0.297835
    15  H    0.152249
    16  H    0.165078
    17  C   -0.040544
    18  C   -0.298038
    19  H    0.183584
    20  H    0.159363
    21  C   -0.327620
    22  H    0.163743
    23  H    0.166844
    24  C   -0.340790
    25  H    0.157911
    26  H    0.165988
    27  C    0.184351
    28  H    0.176662
    29  C   -0.147121
    30  H    0.152403
    31  C   -0.487769
    32  H    0.159517
    33  H    0.167498
    34  H    0.162674
    35  C    0.074513
    36  C   -0.326020
    37  H    0.166487
    38  H    0.172987
    39  C   -0.290754
    40  H    0.193988
    41  C   -0.477821
    42  H    0.167281
    43  H    0.162556
    44  H    0.164648
    45  C   -0.365998
    46  H    0.193900
    47  H    0.152395
    48  C   -0.340774
    49  H    0.144116
    50  H    0.183661
    51  C   -0.315028
    52  H    0.173304
    53  H    0.146907
    54  C    0.193748
    55  H    0.174228
    56  C   -0.485283
    57  H    0.153296
    58  H    0.163076
    59  H    0.160744
    60  C   -0.313043
    61  H    0.157880
    62  H    0.153715
    63  C   -0.296981
    64  H    0.150544
    65  H    0.151727
    66  C   -0.153139
    67  H    0.156746
    68  C   -0.476275
    69  H    0.151728
    70  H    0.158689
    71  H    0.161148
    72  C   -0.471600
    73  H    0.151981
    74  H    0.158269
    75  H    0.157561
 Sum of Mulliken charges =   0.00000

 Dipole moment (field-independent basis, Debye):
    X=              1.7297    Y=              1.8384    Z=              0.9907  Tot=              2.7117
 Quadrupole moment (field-independent basis, Debye-Ang):
   XX=           -178.9723   YY=           -194.1808   ZZ=           -190.9921
   XY=              1.3109   XZ=              3.4631   YZ=             12.9491

 ESP charges:
               1
     1  O   -0.780240
     2  H    0.445811
     3  O   -0.739825
     4  H    0.420908
     5  C    0.666888
     6  C    0.180779
     7  H   -0.031686
     8  C   -0.485512
     9  H    0.120122
    10  C   -0.099962
    11  H    0.040537
    12  C   -0.109340
    13  H   -0.024395
    14  C   -0.238561
    15  H    0.020326
    16  H    0.037454
    17  C    0.207929
    18  C   -0.266008
    19  H    0.101073
    20  H    0.058790
    21  C    0.046819
    22  H    0.007931
    23  H    0.000574
    24  C   -0.116141
    25  H    0.042594
    26  H    0.051334
    27  C    0.735282
    28  H    0.005769
    29  C    0.194484
    30  H   -0.021040
    31  C   -0.616989
    32  H    0.130601
    33  H    0.131960
    34  H    0.118631
    35  C    0.215244
    36  C   -0.065091
    37  H    0.020214
    38  H    0.073891
    39  C   -0.655575
    40  H    0.212414
    41  C   -0.293312
    42  H    0.067632
    43  H    0.070151
    44  H    0.076740
    45  C   -0.461925
    46  H    0.140134
    47  H    0.125866
    48  C   -0.376402
    49  H    0.095794
    50  H    0.104859
    51  C    0.021493
    52  H   -0.022113
    53  H    0.010752
    54  C    0.530259
    55  H    0.044399
    56  C   -0.452391
    57  H    0.094284
    58  H    0.101513
    59  H    0.100001
    60  C   -0.016736
    61  H    0.036384
    62  H    0.005325
    63  C   -0.305361
    64  H    0.070635
    65  H    0.067004
    66  C    0.503035
    67  H   -0.049907
    68  C   -0.443956
    69  H    0.104009
    70  H    0.090761
    71  H    0.102084
    72  C   -0.532281
    73  H    0.121152
    74  H    0.123668
    75  H    0.108458
 Sum of ESP charges =   0.00000

 Normal termination of Gaussian 09 at Thu May 18 13:44:18 2017.
