 Gaussian 09, Revision C.01,
 Gaussian 09:  EM64L-G09RevC.01 23-Sep-2011

 ----------------------------------------------------------------------
 #P HF/6-31G* SCF(Conver=6) NoSymm Test Pop=chelpg IOp(6/33=2) GFInput
 GFPrint
 ----------------------------------------------------------------------

 (Enter /scratch/michal/g09/l101.exe)
 ----------------------------------------------
 MEP - Input generated by R.E.D.-III.x MOLECULE
 ----------------------------------------------
 Charge =  0 Multiplicity = 1

                          Input orientation:
 ---------------------------------------------------------------------
 Center     Atomic      Atomic             Coordinates (Angstroms)
 Number     Number       Type             X           Y           Z
 ---------------------------------------------------------------------
      1          8           0        6.839605    0.787467    0.000000
      2          1           0        7.400034    0.000000    0.000000
      3          8           0       10.392155   -2.043699    4.945351
      4          1           0       10.073101   -1.935537    5.852366
      5          6           0        2.772890   -0.577637    0.724234
      6          6           0        4.083471    0.226455    0.498505
      7          1           0        4.589067   -0.268817   -0.342639
      8          6           0        5.078149    0.187912    1.664971
      9          1           0        4.625475    0.675600    2.540527
     10          6           0        5.434920   -1.276638    2.025171
     11          1           0        6.016951   -1.663310    1.172027
     12          6           0        2.038318   -0.268534   -0.626568
     13          1           0        2.569802   -0.853421   -1.391418
     14          6           0        3.196082   -2.042380    0.956480
     15          1           0        3.669748   -2.421054    0.039326
     16          1           0        2.334864   -2.689435    1.152107
     17          6           0        6.384384   -1.371358    3.270749
     18          6           0        3.615907    1.590206   -0.030308
     19          1           0        4.391015    2.083079   -0.623687
     20          1           0        3.363275    2.267077    0.796028
     21          6           0        4.179366   -2.173654    2.137846
     22          1           0        3.640076   -1.942552    3.062224
     23          1           0        4.483697   -3.223346    2.222126
     24          6           0        2.354554    1.244457   -0.870044
     25          1           0        1.502900    1.864340   -0.565463
     26          1           0        2.514325    1.444076   -1.934296
     27          6           0        6.355500    0.994008    1.348234
     28          1           0        6.106731    2.061292    1.368461
     29          6           0        0.528949   -0.587955   -0.764320
     30          1           0        0.000000    0.000000    0.000000
     31          6           0        1.945051   -0.051865    1.918925
     32          1           0        2.512304   -0.055511    2.853277
     33          1           0        1.599168    0.973532    1.756887
     34          1           0        1.057490   -0.673691    2.078781
     35          6           0        7.498364   -0.320464    3.175676
     36          6           0        7.044362   -2.784941    3.289072
     37          1           0        7.427378   -2.998772    2.281484
     38          1           0        6.277895   -3.539763    3.494899
     39          6           0        7.460010    0.720084    2.327038
     40          1           0        8.298979    1.414834    2.299383
     41          6           0        5.611199   -1.142651    4.598199
     42          1           0        4.926583   -1.970029    4.807478
     43          1           0        6.290178   -1.063759    5.450843
     44          1           0        5.029372   -0.216671    4.563480
     45          6           0        8.681864   -0.490549    4.110504
     46          1           0        9.453514    0.251422    3.883027
     47          1           0        8.365083   -0.307411    5.149716
     48          6           0        8.199334   -2.949664    4.288626
     49          1           0        7.831171   -2.856584    5.321024
     50          1           0        8.632149   -3.952517    4.199521
     51          6           0       -0.053959   -0.114895   -2.124196
     52          1           0       -1.139108   -0.277717   -2.085212
     53          1           0        0.080666    0.970102   -2.219856
     54          6           0        9.286218   -1.901752    4.050338
     55          1           0        9.724370   -2.058664    3.056940
     56          6           0        0.182753   -2.068943   -0.520638
     57          1           0        0.795939   -2.738528   -1.134194
     58          1           0       -0.868096   -2.262182   -0.767207
     59          1           0        0.327703   -2.356278    0.523843
     60          6           0        0.513957   -0.791092   -3.383397
     61          1           0        1.604211   -0.668467   -3.403516
     62          1           0        0.336097   -1.872681   -3.342857
     63          6           0       -0.040620   -0.222498   -4.703681
     64          1           0        0.504858   -0.683745   -5.540459
     65          1           0        0.193753    0.851105   -4.745635
     66          6           0       -1.552061   -0.400674   -4.962115
     67          1           0       -2.102440    0.071986   -4.136164
     68          6           0       -1.966968   -1.879431   -5.020249
     69          1           0       -1.426684   -2.403920   -5.819247
     70          1           0       -3.039128   -1.977245   -5.225497
     71          1           0       -1.762708   -2.403571   -4.081032
     72          6           0       -1.956545    0.323134   -6.256567
     73          1           0       -1.440107   -0.108476   -7.123705
     74          1           0       -3.034405    0.242112   -6.438131
     75          1           0       -1.702364    1.388524   -6.214790
 ---------------------------------------------------------------------

 SCF Done:  E(RHF) =  -1198.92655265     A.U. after    9 cycles

 Alpha  occ. eigenvalues --  -20.56053 -20.55385 -11.28228 -11.27807 -11.25021
 Alpha  occ. eigenvalues --  -11.24479 -11.23132 -11.23076 -11.23061 -11.22712
 Alpha  occ. eigenvalues --  -11.22547 -11.22449 -11.22265 -11.22262 -11.22232
 Alpha  occ. eigenvalues --  -11.22205 -11.21970 -11.21745 -11.21526 -11.21382
 Alpha  occ. eigenvalues --  -11.21292 -11.21216 -11.21065 -11.21044 -11.20946
 Alpha  occ. eigenvalues --  -11.20918 -11.20901 -11.20874 -11.20700  -1.35435
 Alpha  occ. eigenvalues --   -1.34466  -1.16008  -1.13885  -1.09572  -1.08009
 Alpha  occ. eigenvalues --   -1.06034  -1.05651  -1.03079  -1.01603  -0.99457
 Alpha  occ. eigenvalues --   -0.97947  -0.96282  -0.92894  -0.92360  -0.92271
 Alpha  occ. eigenvalues --   -0.90902  -0.90693  -0.86488  -0.84056  -0.82893
 Alpha  occ. eigenvalues --   -0.82611  -0.79326  -0.78307  -0.77133  -0.75199
 Alpha  occ. eigenvalues --   -0.72594  -0.71411  -0.69802  -0.67654  -0.66611
 Alpha  occ. eigenvalues --   -0.64647  -0.64202  -0.64033  -0.63436  -0.62440
 Alpha  occ. eigenvalues --   -0.61989  -0.61275  -0.60821  -0.60481  -0.59112
 Alpha  occ. eigenvalues --   -0.58640  -0.57903  -0.57600  -0.56868  -0.56527
 Alpha  occ. eigenvalues --   -0.56195  -0.55785  -0.55522  -0.54891  -0.54431
 Alpha  occ. eigenvalues --   -0.54026  -0.53830  -0.53458  -0.53016  -0.52843
 Alpha  occ. eigenvalues --   -0.52691  -0.52039  -0.50880  -0.50508  -0.49714
 Alpha  occ. eigenvalues --   -0.49484  -0.48421  -0.48120  -0.47913  -0.47226
 Alpha  occ. eigenvalues --   -0.47077  -0.46636  -0.46006  -0.45641  -0.45247
 Alpha  occ. eigenvalues --   -0.44701  -0.44584  -0.44197  -0.43679  -0.43425
 Alpha  occ. eigenvalues --   -0.42927  -0.42733  -0.41988  -0.41673  -0.40058
 Alpha  occ. eigenvalues --   -0.38368  -0.34571
 Alpha virt. eigenvalues --    0.16194   0.20460   0.21287   0.21396   0.22430
 Alpha virt. eigenvalues --    0.23019   0.23991   0.24230   0.24534   0.25239
 Alpha virt. eigenvalues --    0.25652   0.26031   0.26610   0.27306   0.27433

 Mulliken atomic charges:
              1
     1  O   -0.768562
     2  H    0.433689
     3  O   -0.758631
     4  H    0.428737
     5  C   -0.027938
     6  C   -0.144955
     7  H    0.175279
     8  C   -0.187653
     9  H    0.163052
    10  C   -0.163633
    11  H    0.147650
    12  C   -0.142524
    13  H    0.157908
    14  C   -0.298124
    15  H    0.152424
    16  H    0.163872
    17  C   -0.040297
    18  C   -0.326612
    19  H    0.188900
    20  H    0.150503
    21  C   -0.326956
    22  H    0.164766
    23  H    0.164733
    24  C   -0.335313
    25  H    0.158106
    26  H    0.168449
    27  C    0.176665
    28  H    0.180285
    29  C   -0.146807
    30  H    0.156197
    31  C   -0.489804
    32  H    0.160057
    33  H    0.165901
    34  H    0.161671
    35  C    0.073069
    36  C   -0.324185
    37  H    0.161661
    38  H    0.174709
    39  C   -0.286608
    40  H    0.192128
    41  C   -0.480644
    42  H    0.167391
    43  H    0.162780
    44  H    0.171222
    45  C   -0.367182
    46  H    0.194102
    47  H    0.155294
    48  C   -0.340920
    49  H    0.145586
    50  H    0.184022
    51  C   -0.314141
    52  H    0.156312
    53  H    0.160533
    54  C    0.194427
    55  H    0.171216
    56  C   -0.486538
    57  H    0.157430
    58  H    0.156691
    59  H    0.160985
    60  C   -0.319538
    61  H    0.161042
    62  H    0.159140
    63  C   -0.297712
    64  H    0.150644
    65  H    0.151826
    66  C   -0.152192
    67  H    0.156323
    68  C   -0.476587
    69  H    0.151899
    70  H    0.157782
    71  H    0.161106
    72  C   -0.471677
    73  H    0.152150
    74  H    0.157538
    75  H    0.157883
 Sum of Mulliken atomic charges =   0.00000

 Dipole moment (field-independent basis, Debye):
    X=             -1.4006    Y=             -0.9430    Z=              2.0367  Tot=              2.6456
 Quadrupole moment (field-independent basis, Debye-Ang):
   XX=           -216.0533   YY=           -186.3802   ZZ=           -177.2548
   XY=             -2.8967   XZ=              5.4024   YZ=              0.7114

 Normal termination of Gaussian 09 at Wed May 17 13:21:44 2017.
