 Gaussian 09, Revision C.01,
 Gaussian 09:  EM64L-G09RevC.01 23-Sep-2011

 ----------------------------------------------------------------------
 #P HF/6-31G* SCF(Conver=6) NoSymm Test Pop=chelpg IOp(6/33=2) GFInput
 GFPrint
 ----------------------------------------------------------------------

 (Enter /scratch/michal/g09/l101.exe)
 ----------------------------------------------
 MEP - Input generated by R.E.D.-III.x MOLECULE
 ----------------------------------------------
 Charge =  0 Multiplicity = 1

                          Input orientation:
 ---------------------------------------------------------------------
 Center     Atomic      Atomic             Coordinates (Angstroms)
 Number     Number       Type             X           Y           Z
 ---------------------------------------------------------------------
      1          8           0        6.841926    0.787483    0.000000
      2          1           0        7.402321    0.000000    0.000000
      3          8           0       10.399083   -2.039077    4.943673
      4          1           0       10.080057   -1.931660    5.850784
      5          6           0        2.775920   -0.578050    0.727584
      6          6           0        4.086201    0.225877    0.500332
      7          1           0        4.591506   -0.270291   -0.340455
      8          6           0        5.081573    0.188387    1.666309
      9          1           0        4.629368    0.676294    2.542013
     10          6           0        5.438697   -1.276129    2.026928
     11          1           0        6.019450   -1.663288    1.173134
     12          6           0        2.040229   -0.270078   -0.622636
     13          1           0        2.570852   -0.854851   -1.388364
     14          6           0        3.199096   -2.042650    0.960679
     15          1           0        3.672408   -2.421902    0.043551
     16          1           0        2.337988   -2.689569    1.157201
     17          6           0        6.389757   -1.370576    3.271307
     18          6           0        3.618255    1.589181   -0.029765
     19          1           0        4.392613    2.080628   -0.625300
     20          1           0        3.367538    2.267580    0.795908
     21          6           0        4.183085   -2.172857    2.141552
     22          1           0        3.644308   -1.940463    3.065931
     23          1           0        4.487295   -3.222507    2.226930
     24          6           0        2.355089    1.242969   -0.866673
     25          1           0        1.503734    1.862100   -0.559725
     26          1           0        2.511930    1.442910   -1.931267
     27          6           0        6.358462    0.994610    1.348358
     28          1           0        6.109256    2.061788    1.368082
     29          6           0        0.531209   -0.590872   -0.760581
     30          1           0        0.000000    0.000000    0.000000
     31          6           0        1.948889   -0.051072    1.922318
     32          1           0        2.516764   -0.053530    2.856294
     33          1           0        1.602762    0.974074    1.759290
     34          1           0        1.061568   -0.672833    2.083577
     35          6           0        7.502715   -0.318574    3.175695
     36          6           0        7.051721   -2.783301    3.287635
     37          1           0        7.434572   -2.995207    2.279576
     38          1           0        6.286497   -3.539545    3.492839
     39          6           0        7.463483    0.721681    2.326764
     40          1           0        8.302073    1.416865    2.298623
     41          6           0        5.617714   -1.143798    4.599676
     42          1           0        4.935218   -1.972765    4.809514
     43          1           0        6.297360   -1.063527    5.451662
     44          1           0        5.033744   -0.219145    4.565563
     45          6           0        8.686752   -0.487452    4.109979
     46          1           0        9.457370    0.255558    3.882404
     47          1           0        8.370245   -0.305033    5.149375
     48          6           0        8.207387   -2.947471    4.286537
     49          1           0        7.839485   -2.855812    5.319148
     50          1           0        8.641498   -3.949662    4.196346
     51          6           0       -0.045904   -0.123495   -2.123812
     52          1           0       -1.130848   -0.300930   -2.102324
     53          1           0        0.075053    0.963036   -2.216645
     54          6           0        9.292838   -1.897918    4.048874
     55          1           0        9.731165   -2.053557    3.055351
     56          6           0        0.185141   -2.071001   -0.511386
     57          1           0        0.801881   -2.743476   -1.118118
     58          1           0       -0.864160   -2.266424   -0.762736
     59          1           0        0.325141   -2.352899    0.535280
     60          6           0        0.531440   -0.791947   -3.382922
     61          1           0        1.609243   -0.597591   -3.442412
     62          1           0        0.416281   -1.880037   -3.308397
     63          6           0       -0.153170   -0.288188   -4.664312
     64          1           0       -0.046951    0.805341   -4.712618
     65          1           0       -1.232596   -0.483197   -4.585108
     66          6           0        0.350732   -0.883741   -5.999679
     67          1           0       -0.253784   -0.410303   -6.787575
     68          6           0        0.113820   -2.399873   -6.099615
     69          1           0        0.733259   -2.953920   -5.384885
     70          1           0        0.363058   -2.768191   -7.101370
     71          1           0       -0.934165   -2.654143   -5.901497
     72          6           0        1.820197   -0.534316   -6.288175
     73          1           0        2.499067   -1.021723   -5.578926
     74          1           0        2.108673   -0.862128   -7.293472
     75          1           0        1.992916    0.546649   -6.227222
 ---------------------------------------------------------------------

 SCF Done:  E(RHF) =  -1198.92671520     A.U. after    9 cycles

 Alpha  occ. eigenvalues --  -20.56047 -20.55378 -11.28223 -11.27798 -11.25015
 Alpha  occ. eigenvalues --  -11.24472 -11.23126 -11.23071 -11.23054 -11.22707
 Alpha  occ. eigenvalues --  -11.22531 -11.22441 -11.22364 -11.22258 -11.22198
 Alpha  occ. eigenvalues --  -11.22188 -11.21962 -11.21733 -11.21515 -11.21345
 Alpha  occ. eigenvalues --  -11.21249 -11.21164 -11.21050 -11.21035 -11.20931
 Alpha  occ. eigenvalues --  -11.20899 -11.20853 -11.20830 -11.20691  -1.35428
 Alpha  occ. eigenvalues --   -1.34460  -1.15999  -1.13875  -1.09498  -1.07979
 Alpha  occ. eigenvalues --   -1.06029  -1.05670  -1.03069  -1.01612  -0.99424
 Alpha  occ. eigenvalues --   -0.97932  -0.96269  -0.92880  -0.92351  -0.92235
 Alpha  occ. eigenvalues --   -0.90827  -0.90664  -0.86482  -0.84409  -0.83048
 Alpha  occ. eigenvalues --   -0.82601  -0.79172  -0.78138  -0.77020  -0.74516
 Alpha  occ. eigenvalues --   -0.72887  -0.71543  -0.69787  -0.67642  -0.66591
 Alpha  occ. eigenvalues --   -0.64503  -0.64162  -0.63933  -0.63344  -0.62455
 Alpha  occ. eigenvalues --   -0.62022  -0.61299  -0.60846  -0.60689  -0.59150
 Alpha  occ. eigenvalues --   -0.58722  -0.58399  -0.57754  -0.56941  -0.56574
 Alpha  occ. eigenvalues --   -0.56204  -0.55782  -0.55433  -0.54501  -0.54396
 Alpha  occ. eigenvalues --   -0.54352  -0.53635  -0.53354  -0.52793  -0.52622
 Alpha  occ. eigenvalues --   -0.52163  -0.51683  -0.51366  -0.50798  -0.50164
 Alpha  occ. eigenvalues --   -0.48563  -0.48264  -0.48093  -0.47916  -0.47381
 Alpha  occ. eigenvalues --   -0.47036  -0.46593  -0.46241  -0.45593  -0.45233
 Alpha  occ. eigenvalues --   -0.44884  -0.44620  -0.44418  -0.43443  -0.43340
 Alpha  occ. eigenvalues --   -0.42822  -0.42646  -0.42255  -0.41566  -0.40027
 Alpha  occ. eigenvalues --   -0.38346  -0.34565
 Alpha virt. eigenvalues --    0.16203   0.20468   0.21293   0.21446   0.22347
 Alpha virt. eigenvalues --    0.22983   0.24030   0.24439   0.24512   0.25235
 Alpha virt. eigenvalues --    0.25572   0.26062   0.26667   0.27136   0.27603

 Mulliken atomic charges:
              1
     1  O   -0.768553
     2  H    0.433662
     3  O   -0.758643
     4  H    0.428728
     5  C   -0.028212
     6  C   -0.144874
     7  H    0.175158
     8  C   -0.187683
     9  H    0.163051
    10  C   -0.163674
    11  H    0.147614
    12  C   -0.141964
    13  H    0.157592
    14  C   -0.298063
    15  H    0.152185
    16  H    0.164019
    17  C   -0.040206
    18  C   -0.326700
    19  H    0.188903
    20  H    0.150521
    21  C   -0.326923
    22  H    0.164810
    23  H    0.164660
    24  C   -0.335305
    25  H    0.158234
    26  H    0.168436
    27  C    0.176696
    28  H    0.180288
    29  C   -0.147164
    30  H    0.156110
    31  C   -0.489766
    32  H    0.159976
    33  H    0.165942
    34  H    0.161765
    35  C    0.073047
    36  C   -0.324149
    37  H    0.161621
    38  H    0.174688
    39  C   -0.286574
    40  H    0.192119
    41  C   -0.480700
    42  H    0.167415
    43  H    0.162769
    44  H    0.171219
    45  C   -0.367190
    46  H    0.194091
    47  H    0.155291
    48  C   -0.340893
    49  H    0.145591
    50  H    0.184010
    51  C   -0.309083
    52  H    0.151790
    53  H    0.161217
    54  C    0.194407
    55  H    0.171216
    56  C   -0.485774
    57  H    0.156696
    58  H    0.157213
    59  H    0.160593
    60  C   -0.321896
    61  H    0.160847
    62  H    0.159910
    63  C   -0.300005
    64  H    0.151422
    65  H    0.150665
    66  C   -0.146076
    67  H    0.154993
    68  C   -0.476015
    69  H    0.155439
    70  H    0.157990
    71  H    0.156398
    72  C   -0.476282
    73  H    0.155893
    74  H    0.158007
    75  H    0.157461
 Sum of Mulliken atomic charges =   0.00000

 Dipole moment (field-independent basis, Debye):
    X=             -1.4652    Y=             -0.9337    Z=              1.9142  Tot=              2.5851
 Quadrupole moment (field-independent basis, Debye-Ang):
   XX=           -216.3424   YY=           -186.4232   ZZ=           -175.8384
   XY=             -2.6983   XZ=              6.2178   YZ=              0.3331

 Normal termination of Gaussian 09 at Wed May 17 12:36:14 2017.
