 Gaussian 09, Revision C.01,
 Gaussian 09:  EM64L-G09RevC.01 23-Sep-2011

 ----------------------------------------------------------------------
 #P HF/6-31G* SCF(Conver=6) NoSymm Test Pop=chelpg IOp(6/33=2) GFInput
 GFPrint
 ----------------------------------------------------------------------

 (Enter /scratch/michal/g09/l101.exe)
 ----------------------------------------------
 MEP - Input generated by R.E.D.-III.x MOLECULE
 ----------------------------------------------
 Charge =  0 Multiplicity = 1

                          Input orientation:
 ---------------------------------------------------------------------
 Center     Atomic      Atomic             Coordinates (Angstroms)
 Number     Number       Type             X           Y           Z
 ---------------------------------------------------------------------
      1          8           0        5.763958    3.446311    0.000000
      2          1           0        5.128768    3.287886    0.711107
      3          8           0        0.000000    0.000000    0.000000
      4          1           0       -0.083120   -0.744048   -0.612899
      5          6           0        8.819149    0.369901    0.375956
      6          6           0        7.896074    1.544737   -0.052595
      7          1           0        7.717597    2.126471    0.863014
      8          6           0        6.510393    1.130714   -0.562980
      9          1           0        6.627490    0.545859   -1.486845
     10          6           0        5.776759    0.268775    0.495330
     11          1           0        5.553788    0.947694    1.335284
     12          6           0       10.103708    1.173030    0.785079
     13          1           0        9.868521    1.650692    1.749493
     14          6           0        8.079445   -0.369425    1.510183
     15          1           0        7.980249    0.312793    2.366741
     16          1           0        8.641850   -1.237539    1.868018
     17          6           0        4.388120   -0.252353   -0.016151
     18          6           0        8.780064    2.422475   -0.948564
     19          1           0        8.426520    3.456709   -0.982505
     20          1           0        8.786424    2.049349   -1.980772
     21          6           0        6.681859   -0.848141    1.066580
     22          1           0        6.809522   -1.639782    0.321013
     23          1           0        6.187800   -1.319819    1.923929
     24          6           0       10.187283    2.298984   -0.302640
     25          1           0       10.943603    2.045670   -1.055439
     26          1           0       10.500288    3.248363    0.141518
     27          6           0        5.657335    2.357947   -0.947951
     28          1           0        6.061445    2.785802   -1.872610
     29          6           0       11.450477    0.426738    0.973596
     30          1           0       11.736805    0.000000    0.000000
     31          6           0        9.139821   -0.592229   -0.790943
     32          1           0        8.238772   -1.011785   -1.245906
     33          1           0        9.700300   -0.094040   -1.587788
     34          1           0        9.747541   -1.434611   -0.444234
     35          6           0        3.629724    0.868053   -0.739890
     36          6           0        3.540297   -0.703072    1.213506
     37          1           0        3.590405    0.088279    1.974376
     38          1           0        3.996611   -1.592151    1.661741
     39          6           0        4.212030    2.006842   -1.150282
     40          1           0        3.604674    2.768698   -1.638142
     41          6           0        4.551174   -1.443861   -0.998976
     42          1           0        4.919790   -2.336412   -0.484627
     43          1           0        3.601014   -1.712348   -1.467344
     44          1           0        5.249547   -1.199681   -1.805090
     45          6           0        2.151682    0.639265   -0.997999
     46          1           0        1.697894    1.540105   -1.422606
     47          1           0        2.023180   -0.160296   -1.744988
     48          6           0        2.061159   -0.989399    0.912780
     49          1           0        1.965555   -1.854606    0.240210
     50          1           0        1.534475   -1.251554    1.837366
     51          6           0       12.563142    1.425960    1.377900
     52          1           0       12.522771    2.299416    0.717380
     53          1           0       12.348770    1.801586    2.390417
     54          6           0        1.387131    0.221012    0.267225
     55          1           0        1.392578    1.056438    0.978189
     56          6           0       11.370464   -0.724769    1.991495
     57          1           0       11.005562   -0.365047    2.961918
     58          1           0       12.352558   -1.178320    2.154950
     59          1           0       10.703383   -1.523619    1.660078
     60          6           0       13.997866    0.874049    1.334092
     61          1           0       14.108356    0.050399    2.048405
     62          1           0       14.181916    0.448154    0.338255
     63          6           0       15.044301    1.958392    1.639553
     64          1           0       14.818483    2.396329    2.622719
     65          1           0       14.927797    2.774367    0.911717
     66          6           0       16.525434    1.513390    1.636125
     67          1           0       17.111355    2.416295    1.863643
     68          6           0       16.989393    1.009571    0.259353
     69          1           0       16.494598    0.070805   -0.015230
     70          1           0       18.069345    0.822536    0.256087
     71          1           0       16.775160    1.742967   -0.527024
     72          6           0       16.839276    0.484479    2.735086
     73          1           0       16.340721   -0.473485    2.547331
     74          1           0       17.916036    0.286696    2.787525
     75          1           0       16.517134    0.841915    3.720258
 ---------------------------------------------------------------------

 SCF Done:  E(RHF) =  -1198.92705465     A.U. after    9 cycles

 Alpha  occ. eigenvalues --  -20.56041 -20.55371 -11.28215 -11.27793 -11.25005
 Alpha  occ. eigenvalues --  -11.24460 -11.23113 -11.23063 -11.23047 -11.22700
 Alpha  occ. eigenvalues --  -11.22556 -11.22433 -11.22432 -11.22252 -11.22206
 Alpha  occ. eigenvalues --  -11.22188 -11.21948 -11.21839 -11.21500 -11.21404
 Alpha  occ. eigenvalues --  -11.21301 -11.21190 -11.21040 -11.21028 -11.20957
 Alpha  occ. eigenvalues --  -11.20942 -11.20922 -11.20760 -11.20657  -1.35423
 Alpha  occ. eigenvalues --   -1.34453  -1.15987  -1.13848  -1.09536  -1.08033
 Alpha  occ. eigenvalues --   -1.06024  -1.05731  -1.03063  -1.01668  -0.99467
 Alpha  occ. eigenvalues --   -0.97953  -0.96245  -0.92875  -0.92365  -0.92309
 Alpha  occ. eigenvalues --   -0.90877  -0.90618  -0.86474  -0.84284  -0.82711
 Alpha  occ. eigenvalues --   -0.82593  -0.79071  -0.78057  -0.77085  -0.74536
 Alpha  occ. eigenvalues --   -0.73579  -0.71767  -0.69763  -0.67614  -0.66573
 Alpha  occ. eigenvalues --   -0.64625  -0.64240  -0.63830  -0.63314  -0.62392
 Alpha  occ. eigenvalues --   -0.62205  -0.61250  -0.60944  -0.60204  -0.59288
 Alpha  occ. eigenvalues --   -0.58668  -0.58377  -0.58027  -0.57155  -0.56579
 Alpha  occ. eigenvalues --   -0.56037  -0.55769  -0.55566  -0.54747  -0.54423
 Alpha  occ. eigenvalues --   -0.54286  -0.53580  -0.53223  -0.52815  -0.52512
 Alpha  occ. eigenvalues --   -0.52033  -0.51499  -0.50897  -0.50749  -0.50600
 Alpha  occ. eigenvalues --   -0.48371  -0.48322  -0.48171  -0.47884  -0.47376
 Alpha  occ. eigenvalues --   -0.46849  -0.46601  -0.45899  -0.45521  -0.45476
 Alpha  occ. eigenvalues --   -0.45008  -0.44802  -0.44351  -0.43841  -0.43313
 Alpha  occ. eigenvalues --   -0.43183  -0.42762  -0.42254  -0.41548  -0.39998
 Alpha  occ. eigenvalues --   -0.38244  -0.34554
 Alpha virt. eigenvalues --    0.16213   0.20596   0.21358   0.21734   0.22306
 Alpha virt. eigenvalues --    0.22872   0.24175   0.24550   0.24980   0.25268
 Alpha virt. eigenvalues --    0.25842   0.26133   0.26500   0.27067   0.27146

 Mulliken atomic charges:
              1
     1  O   -0.768369
     2  H    0.433630
     3  O   -0.758660
     4  H    0.428717
     5  C   -0.029954
     6  C   -0.145090
     7  H    0.175431
     8  C   -0.187755
     9  H    0.163049
    10  C   -0.163589
    11  H    0.147520
    12  C   -0.136143
    13  H    0.153517
    14  C   -0.298178
    15  H    0.152504
    16  H    0.164193
    17  C   -0.040183
    18  C   -0.326448
    19  H    0.188717
    20  H    0.150353
    21  C   -0.326823
    22  H    0.164687
    23  H    0.164654
    24  C   -0.336050
    25  H    0.157281
    26  H    0.169974
    27  C    0.176352
    28  H    0.180282
    29  C   -0.148905
    30  H    0.151612
    31  C   -0.489017
    32  H    0.159640
    33  H    0.165879
    34  H    0.162245
    35  C    0.072901
    36  C   -0.324162
    37  H    0.161645
    38  H    0.174684
    39  C   -0.286147
    40  H    0.192082
    41  C   -0.480677
    42  H    0.167378
    43  H    0.162761
    44  H    0.171203
    45  C   -0.367129
    46  H    0.194073
    47  H    0.155237
    48  C   -0.340885
    49  H    0.145569
    50  H    0.183982
    51  C   -0.307368
    52  H    0.166404
    53  H    0.147712
    54  C    0.194406
    55  H    0.171218
    56  C   -0.484772
    57  H    0.152701
    58  H    0.163130
    59  H    0.160817
    60  C   -0.314668
    61  H    0.158855
    62  H    0.153696
    63  C   -0.300861
    64  H    0.151747
    65  H    0.151649
    66  C   -0.146333
    67  H    0.155425
    68  C   -0.476111
    69  H    0.155891
    70  H    0.157936
    71  H    0.156834
    72  C   -0.476205
    73  H    0.155210
    74  H    0.158207
    75  H    0.156890
 Sum of Mulliken atomic charges =   0.00000

 Dipole moment (field-independent basis, Debye):
    X=              0.3070    Y=             -2.4714    Z=             -0.3435  Tot=              2.5140
 Quadrupole moment (field-independent basis, Debye-Ang):
   XX=           -195.9607   YY=           -192.2538   ZZ=           -182.8980
   XY=             -9.6600   XZ=              1.6089   YZ=              2.1997

 Normal termination of Gaussian 09 at Wed May 17 11:42:24 2017.
