 Gaussian 09, Revision C.01,
 Gaussian 09:  EM64L-G09RevC.01 23-Sep-2011

 ----------------------------------------------------------------------
 #P HF/6-31G* SCF(Conver=6) NoSymm Test Pop=chelpg IOp(6/33=2) GFInput
 GFPrint
 ----------------------------------------------------------------------

 (Enter /scratch/michal/g09/l101.exe)
 ----------------------------------------------
 MEP - Input generated by R.E.D.-III.x MOLECULE
 ----------------------------------------------
 Charge =  0 Multiplicity = 1

                          Input orientation:
 ---------------------------------------------------------------------
 Center     Atomic      Atomic             Coordinates (Angstroms)
 Number     Number       Type             X           Y           Z
 ---------------------------------------------------------------------
      1          8           0        0.000000    0.000000    0.000000
      2          1           0        0.966531    0.000000    0.000000
      3          8           0        4.366497   -1.386009   -4.914441
      4          1           0        4.089848   -1.217555   -5.826177
      5          6           0       -1.241616    4.072830   -0.861743
      6          6           0       -1.145754    2.552791   -0.576429
      7          1           0       -0.445813    2.453918    0.264957
      8          6           0       -0.538546    1.729710   -1.717857
      9          1           0       -1.197188    1.787066   -2.596474
     10          6           0        0.863640    2.281912   -2.091524
     11          1           0        1.514009    2.049222   -1.231937
     12          6           0       -1.901931    4.541565    0.472688
     13          1           0       -1.116019    4.388409    1.226342
     14          6           0        0.191154    4.583556   -1.092177
     15          1           0        0.766786    4.448942   -0.165114
     16          1           0        0.202711    5.658949   -1.315430
     17          6           0        1.489539    1.529341   -3.318165
     18          6           0       -2.532582    2.178481   -0.021371
     19          1           0       -2.483097    1.298512    0.625899
     20          1           0       -3.231824    1.940864   -0.833361
     21          6           0        0.883862    3.824912   -2.243370
     22          1           0        0.406393    4.112204   -3.185341
     23          1           0        1.921515    4.170136   -2.315889
     24          6           0       -2.991947    3.457952    0.746273
     25          1           0       -3.974607    3.782682    0.392796
     26          1           0       -3.096555    3.268493    1.819535
     27          6           0       -0.449206    0.232342   -1.356001
     28          1           0       -1.462098   -0.186718   -1.363721
     29          6           0       -2.321902    6.033797    0.615202
     30          1           0       -1.620588    6.618614    0.000000
     31          6           0       -2.127575    4.399127   -2.084227
     32          1           0       -1.744289    3.949733   -3.003887
     33          1           0       -3.153296    4.041507   -1.957850
     34          1           0       -2.170787    5.481274   -2.249440
     35          6           0        1.284342    0.014891   -3.177976
     36          6           0        3.022887    1.815720   -3.351081
     37          1           0        3.423504    1.660567   -2.339553
     38          1           0        3.189068    2.871327   -3.590804
     39          6           0        0.416739   -0.534859   -2.312232
     40          1           0        0.340655   -1.620202   -2.252747
     41          6           0        0.847767    1.984757   -4.657336
     42          1           0        1.122922    3.015359   -4.900638
     43          1           0        1.173540    1.359834   -5.492562
     44          1           0       -0.243771    1.922058   -4.615342
     45          6           0        2.110202   -0.875728   -4.088189
     46          1           0        1.957379   -1.927747   -3.828185
     47          1           0        1.773997   -0.756862   -5.130655
     48          6           0        3.826392    0.942737   -4.327023
     49          1           0        3.532425    1.155850   -5.365419
     50          1           0        4.893817    1.178262   -4.248878
     51          6           0       -3.750641    6.377611    0.129485
     52          1           0       -3.986879    5.820044   -0.783073
     53          1           0       -4.471760    6.039303    0.885164
     54          6           0        3.609336   -0.543035   -4.042429
     55          1           0        3.995200   -0.777337   -3.042614
     56          6           0       -2.128466    6.491970    2.075516
     57          1           0       -2.757368    5.902827    2.754707
     58          1           0       -2.390029    7.546065    2.212644
     59          1           0       -1.087726    6.367166    2.394420
     60          6           0       -3.966018    7.872829   -0.162030
     61          1           0       -3.798116    8.465815    0.745007
     62          1           0       -3.199170    8.201590   -0.877762
     63          6           0       -5.345213    8.213614   -0.755701
     64          1           0       -5.467984    7.656610   -1.695971
     65          1           0       -5.354914    9.278661   -1.031572
     66          6           0       -6.574752    7.938530    0.136366
     67          1           0       -6.578538    6.870938    0.398898
     68          6           0       -7.868731    8.225045   -0.642410
     69          1           0       -7.926172    9.282954   -0.929583
     70          1           0       -8.755252    7.996189   -0.039983
     71          1           0       -7.923478    7.628114   -1.560110
     72          6           0       -6.543423    8.745422    1.444078
     73          1           0       -6.512618    9.822960    1.235907
     74          1           0       -7.438035    8.549409    2.046037
     75          1           0       -5.672570    8.500144    2.060457
 ---------------------------------------------------------------------

 SCF Done:  E(RHF) =  -1198.92458726     A.U. after    9 cycles

 Alpha  occ. eigenvalues --  -20.56063 -20.55388 -11.28238 -11.27814 -11.25057
 Alpha  occ. eigenvalues --  -11.24499 -11.23229 -11.23094 -11.23075 -11.22726
 Alpha  occ. eigenvalues --  -11.22461 -11.22358 -11.22321 -11.22288 -11.22269
 Alpha  occ. eigenvalues --  -11.22243 -11.22064 -11.21652 -11.21644 -11.21518
 Alpha  occ. eigenvalues --  -11.21461 -11.21169 -11.21035 -11.21016 -11.20994
 Alpha  occ. eigenvalues --  -11.20972 -11.20948 -11.20864 -11.20823  -1.35446
 Alpha  occ. eigenvalues --   -1.34470  -1.16040  -1.13925  -1.09595  -1.08031
 Alpha  occ. eigenvalues --   -1.06062  -1.05671  -1.03073  -1.01686  -0.99649
 Alpha  occ. eigenvalues --   -0.97994  -0.96206  -0.92719  -0.92353  -0.92112
 Alpha  occ. eigenvalues --   -0.91314  -0.90684  -0.86508  -0.83724  -0.82753
 Alpha  occ. eigenvalues --   -0.82654  -0.79842  -0.78254  -0.77508  -0.74852
 Alpha  occ. eigenvalues --   -0.72660  -0.71700  -0.69809  -0.67627  -0.66494
 Alpha  occ. eigenvalues --   -0.64426  -0.64113  -0.64031  -0.63735  -0.62372
 Alpha  occ. eigenvalues --   -0.62049  -0.61217  -0.61076  -0.60060  -0.59414
 Alpha  occ. eigenvalues --   -0.58986  -0.58433  -0.57565  -0.57306  -0.56317
 Alpha  occ. eigenvalues --   -0.56015  -0.55796  -0.55299  -0.54943  -0.54329
 Alpha  occ. eigenvalues --   -0.53904  -0.53682  -0.53555  -0.52993  -0.52855
 Alpha  occ. eigenvalues --   -0.52432  -0.52032  -0.51131  -0.50499  -0.50090
 Alpha  occ. eigenvalues --   -0.48465  -0.48403  -0.48236  -0.47978  -0.47658
 Alpha  occ. eigenvalues --   -0.46903  -0.46693  -0.46387  -0.45734  -0.45267
 Alpha  occ. eigenvalues --   -0.45201  -0.44750  -0.44279  -0.43607  -0.43338
 Alpha  occ. eigenvalues --   -0.42825  -0.42362  -0.42021  -0.41746  -0.40076
 Alpha  occ. eigenvalues --   -0.38484  -0.34587
 Alpha virt. eigenvalues --    0.16172   0.20456   0.21304   0.21408   0.22759
 Alpha virt. eigenvalues --    0.22881   0.23708   0.24137   0.24444   0.25271
 Alpha virt. eigenvalues --    0.25577   0.26268   0.26517   0.27293   0.27377

 Mulliken atomic charges:
              1
     1  O   -0.768564
     2  H    0.433740
     3  O   -0.758622
     4  H    0.428742
     5  C   -0.032231
     6  C   -0.144932
     7  H    0.175488
     8  C   -0.187544
     9  H    0.163503
    10  C   -0.163982
    11  H    0.147796
    12  C   -0.148896
    13  H    0.157832
    14  C   -0.295909
    15  H    0.152914
    16  H    0.158328
    17  C   -0.040250
    18  C   -0.327966
    19  H    0.188407
    20  H    0.150565
    21  C   -0.327535
    22  H    0.165421
    23  H    0.165520
    24  C   -0.329748
    25  H    0.164820
    26  H    0.165931
    27  C    0.177551
    28  H    0.180247
    29  C   -0.143357
    30  H    0.155647
    31  C   -0.488588
    32  H    0.160632
    33  H    0.165731
    34  H    0.161793
    35  C    0.072914
    36  C   -0.324493
    37  H    0.161734
    38  H    0.174883
    39  C   -0.286983
    40  H    0.192209
    41  C   -0.480681
    42  H    0.167091
    43  H    0.162934
    44  H    0.171573
    45  C   -0.367231
    46  H    0.194169
    47  H    0.155281
    48  C   -0.340911
    49  H    0.145582
    50  H    0.184062
    51  C   -0.318374
    52  H    0.162417
    53  H    0.156860
    54  C    0.194451
    55  H    0.171257
    56  C   -0.482565
    57  H    0.155519
    58  H    0.160224
    59  H    0.158210
    60  C   -0.312690
    61  H    0.158174
    62  H    0.152624
    63  C   -0.297685
    64  H    0.150563
    65  H    0.150495
    66  C   -0.151592
    67  H    0.156574
    68  C   -0.471796
    69  H    0.152064
    70  H    0.158224
    71  H    0.157242
    72  C   -0.476791
    73  H    0.151695
    74  H    0.158525
    75  H    0.161758
 Sum of Mulliken atomic charges =   0.00000

 Dipole moment (field-independent basis, Debye):
    X=              0.0949    Y=              1.5848    Z=             -2.0202  Tot=              2.5694
 Quadrupole moment (field-independent basis, Debye-Ang):
   XX=           -194.7627   YY=           -189.2771   ZZ=           -175.8629
   XY=              9.1396   XZ=              2.9585   YZ=             -6.2390

 Normal termination of Gaussian 09 at Wed May 17 12:40:30 2017.
