 Gaussian 09, Revision C.01,
 Gaussian 09:  EM64L-G09RevC.01 23-Sep-2011

 ----------------------------------------------------------------------
 #P HF/6-31G* SCF(Conver=6) NoSymm Test Pop=chelpg IOp(6/33=2) GFInput
 GFPrint
 ----------------------------------------------------------------------

 (Enter /scratch/michal/g09/l101.exe)
 ----------------------------------------------
 MEP - Input generated by R.E.D.-III.x MOLECULE
 ----------------------------------------------
 Charge =  0 Multiplicity = 1

                          Input orientation:
 ---------------------------------------------------------------------
 Center     Atomic      Atomic             Coordinates (Angstroms)
 Number     Number       Type             X           Y           Z
 ---------------------------------------------------------------------
      1          8           0        6.728481    0.819779    0.000000
      2          1           0        7.240473    0.000000    0.000000
      3          8           0       11.394978   -1.427449    4.270527
      4          1           0       11.341912   -1.140924    5.193165
      5          6           0        2.970850   -0.051535    2.010009
      6          6           0        4.195490    0.600904    1.305654
      7          1           0        4.437048   -0.059748    0.461545
      8          6           0        5.471569    0.670526    2.152996
      9          1           0        5.301947    1.337271    3.010577
     10          6           0        5.857268   -0.738985    2.672028
     11          1           0        6.167505   -1.312556    1.782684
     12          6           0        1.925783    0.083138    0.848479
     13          1           0        2.292517   -0.604473    0.074448
     14          6           0        3.389761   -1.485682    2.386436
     15          1           0        3.588552   -2.052236    1.465972
     16          1           0        2.585863   -2.013048    2.913598
     17          6           0        7.108658   -0.703982    3.618061
     18          6           0        3.639777    1.896437    0.689662
     19          1           0        4.233715    2.224504   -0.168014
     20          1           0        3.650308    2.714595    1.421232
     21          6           0        4.649438   -1.495368    3.276527
     22          1           0        4.389140   -1.064713    4.248765
     23          1           0        4.929723   -2.536570    3.473487
     24          6           0        2.182007    1.521731    0.295439
     25          1           0        1.469766    2.240702    0.712899
     26          1           0        2.035882    1.541003   -0.790053
     27          6           0        6.641943    1.295081    1.364247
     28          1           0        6.448821    2.367783    1.248414
     29          6           0        0.412910   -0.252681    0.990613
     30          1           0        0.000000    0.000000    0.000000
     31          6           0        2.544097    0.728497    3.275338
     32          1           0        3.384813    0.906507    3.951008
     33          1           0        2.114958    1.704252    3.033801
     34          1           0        1.792699    0.169709    3.841076
     35          6           0        8.192123    0.215417    3.038772
     36          6           0        7.695409   -2.145829    3.723837
     37          1           0        7.777745   -2.558721    2.708738
     38          1           0        6.988110   -2.786252    4.261540
     39          6           0        7.961538    1.096320    2.051232
     40          1           0        8.786310    1.700719    1.674701
     41          6           0        6.739234   -0.188802    5.035846
     42          1           0        6.106312   -0.905892    5.567073
     43          1           0        7.628736   -0.028471    5.650116
     44          1           0        6.207101    0.765862    4.984628
     45          6           0        9.579757    0.104337    3.643441
     46          1           0       10.286016    0.728250    3.086988
     47          1           0        9.567794    0.486520    4.676686
     48          6           0        9.074121   -2.238783    4.395311
     49          1           0        9.008206   -1.942051    5.452521
     50          1           0        9.428112   -3.275851    4.382490
     51          6           0        0.099781   -1.752226    1.209136
     52          1           0        0.518091   -2.082967    2.169180
     53          1           0       -0.990600   -1.847144    1.315239
     54          6           0       10.091595   -1.343496    3.688713
     55          1           0       10.233651   -1.702469    2.661876
     56          6           0       -0.393009    0.581716    2.006887
     57          1           0       -0.221446    0.253782    3.036302
     58          1           0       -1.464626    0.468694    1.806769
     59          1           0       -0.164187    1.650000    1.954106
     60          6           0        0.550812   -2.709496    0.094771
     61          1           0        0.174337   -2.334153   -0.866592
     62          1           0        1.643824   -2.710433    0.019503
     63          6           0        0.051620   -4.145302    0.326013
     64          1           0       -1.045399   -4.128029    0.399814
     65          1           0        0.414475   -4.489575    1.305490
     66          6           0        0.449780   -5.196954   -0.735701
     67          1           0        0.001670   -6.145069   -0.403162
     68          6           0        1.969574   -5.419112   -0.810954
     69          1           0        2.489131   -4.534589   -1.197101
     70          1           0        2.208648   -6.254840   -1.478537
     71          1           0        2.388509   -5.649629    0.175732
     72          6           0       -0.131795   -4.885587   -2.124789
     73          1           0        0.313866   -3.981956   -2.556333
     74          1           0        0.060787   -5.709283   -2.821683
     75          1           0       -1.216720   -4.734238   -2.078534
 ---------------------------------------------------------------------

 SCF Done:  E(RHF) =  -1198.92091755     A.U. after    9 cycles

 Alpha  occ. eigenvalues --  -20.56053 -20.55383 -11.28229 -11.27806 -11.25032
 Alpha  occ. eigenvalues --  -11.24484 -11.23164 -11.23082 -11.23061 -11.22716
 Alpha  occ. eigenvalues --  -11.22563 -11.22522 -11.22450 -11.22381 -11.22265
 Alpha  occ. eigenvalues --  -11.22204 -11.21999 -11.21785 -11.21618 -11.21505
 Alpha  occ. eigenvalues --  -11.21373 -11.21315 -11.21064 -11.21041 -11.20993
 Alpha  occ. eigenvalues --  -11.20990 -11.20792 -11.20749 -11.20740  -1.35434
 Alpha  occ. eigenvalues --   -1.34466  -1.15998  -1.13829  -1.09502  -1.08029
 Alpha  occ. eigenvalues --   -1.06046  -1.05729  -1.03098  -1.01665  -0.99634
 Alpha  occ. eigenvalues --   -0.97942  -0.96311  -0.92636  -0.92390  -0.92347
 Alpha  occ. eigenvalues --   -0.91592  -0.90386  -0.86488  -0.83872  -0.83037
 Alpha  occ. eigenvalues --   -0.82531  -0.79323  -0.78543  -0.77032  -0.74445
 Alpha  occ. eigenvalues --   -0.73439  -0.71526  -0.69731  -0.67590  -0.66353
 Alpha  occ. eigenvalues --   -0.64659  -0.64182  -0.63872  -0.63368  -0.62514
 Alpha  occ. eigenvalues --   -0.62339  -0.61184  -0.60996  -0.59751  -0.59390
 Alpha  occ. eigenvalues --   -0.59056  -0.58468  -0.57640  -0.57430  -0.56301
 Alpha  occ. eigenvalues --   -0.56000  -0.55954  -0.55418  -0.55100  -0.54373
 Alpha  occ. eigenvalues --   -0.54226  -0.53794  -0.53667  -0.52884  -0.52687
 Alpha  occ. eigenvalues --   -0.52112  -0.51513  -0.50719  -0.50406  -0.50105
 Alpha  occ. eigenvalues --   -0.49033  -0.48569  -0.48104  -0.47725  -0.47609
 Alpha  occ. eigenvalues --   -0.47150  -0.46762  -0.46308  -0.45694  -0.45213
 Alpha  occ. eigenvalues --   -0.45140  -0.44851  -0.44425  -0.43925  -0.43165
 Alpha  occ. eigenvalues --   -0.42880  -0.42459  -0.41893  -0.41436  -0.40001
 Alpha  occ. eigenvalues --   -0.38323  -0.34574
 Alpha virt. eigenvalues --    0.16191   0.20240   0.20991   0.21523   0.22008
 Alpha virt. eigenvalues --    0.22804   0.23980   0.24285   0.24596   0.24955
 Alpha virt. eigenvalues --    0.25242   0.26068   0.26770   0.27150   0.27846

 Mulliken atomic charges:
              1
     1  O   -0.768546
     2  H    0.433695
     3  O   -0.758626
     4  H    0.428738
     5  C   -0.022834
     6  C   -0.148886
     7  H    0.176494
     8  C   -0.187903
     9  H    0.163058
    10  C   -0.163621
    11  H    0.147644
    12  C   -0.156548
    13  H    0.161710
    14  C   -0.301907
    15  H    0.153668
    16  H    0.161688
    17  C   -0.040456
    18  C   -0.326181
    19  H    0.187756
    20  H    0.150945
    21  C   -0.326744
    22  H    0.166212
    23  H    0.164625
    24  C   -0.327935
    25  H    0.158388
    26  H    0.165592
    27  C    0.177389
    28  H    0.180435
    29  C   -0.141521
    30  H    0.152123
    31  C   -0.486552
    32  H    0.158802
    33  H    0.167113
    34  H    0.160457
    35  C    0.073197
    36  C   -0.324216
    37  H    0.161698
    38  H    0.174630
    39  C   -0.287056
    40  H    0.192193
    41  C   -0.480376
    42  H    0.167448
    43  H    0.162745
    44  H    0.171248
    45  C   -0.367221
    46  H    0.194118
    47  H    0.155332
    48  C   -0.340871
    49  H    0.145584
    50  H    0.184043
    51  C   -0.300054
    52  H    0.152222
    53  H    0.152315
    54  C    0.194415
    55  H    0.171224
    56  C   -0.482412
    57  H    0.155955
    58  H    0.157850
    59  H    0.160566
    60  C   -0.319358
    61  H    0.154956
    62  H    0.162383
    63  C   -0.300550
    64  H    0.151512
    65  H    0.150183
    66  C   -0.146198
    67  H    0.155192
    68  C   -0.476464
    69  H    0.155483
    70  H    0.158747
    71  H    0.155645
    72  C   -0.476340
    73  H    0.156869
    74  H    0.158202
    75  H    0.156888
 Sum of Mulliken atomic charges =   0.00000

 Dipole moment (field-independent basis, Debye):
    X=             -0.9015    Y=             -0.6198    Z=              2.3301  Tot=              2.5741
 Quadrupole moment (field-independent basis, Debye-Ang):
   XX=           -210.3147   YY=           -186.0356   ZZ=           -173.6869
   XY=              1.1116   XZ=             14.7652   YZ=              1.5212

 Normal termination of Gaussian 09 at Wed May 17 12:53:07 2017.
