 Gaussian 09, Revision C.01,
 Gaussian 09:  EM64L-G09RevC.01 23-Sep-2011

 ----------------------------------------------------------------------
 #P HF/6-31G* SCF(Conver=6) NoSymm Test Pop=chelpg IOp(6/33=2) GFInput
 GFPrint
 ----------------------------------------------------------------------

 (Enter /scratch/michal/g09/l101.exe)
 ----------------------------------------------
 MEP - Input generated by R.E.D.-III.x MOLECULE
 ----------------------------------------------
 Charge =  0 Multiplicity = 1

                          Input orientation:
 ---------------------------------------------------------------------
 Center     Atomic      Atomic             Coordinates (Angstroms)
 Number     Number       Type             X           Y           Z
 ---------------------------------------------------------------------
      1          8           0        5.510423    3.841686    0.000000
      2          1           0        4.990702    3.489068    0.734650
      3          8           0        0.000000    0.000000    0.000000
      4          1           0       -0.131662   -0.602624   -0.745438
      5          6           0        8.726011    1.009568   -0.719302
      6          6           0        7.707708    2.176868   -0.750600
      7          1           0        7.630997    2.529729    0.287317
      8          6           0        6.286798    1.768279   -1.154122
      9          1           0        6.295919    1.401994   -2.190812
     10          6           0        5.764883    0.644937   -0.217915
     11          1           0        5.627470    1.119210    0.768095
     12          6           0       10.006778    1.798565   -0.302635
     13          1           0        9.809234    2.096638    0.737231
     14          6           0        8.221926   -0.005602    0.321146
     15          1           0        8.225705    0.472913    1.311064
     16          1           0        8.889990   -0.874743    0.390174
     17          6           0        4.346407    0.127407   -0.645726
     18          6           0        8.428694    3.294472   -1.526790
     19          1           0        8.053295    4.283558   -1.250162
     20          1           0        8.277715    3.184702   -2.608384
     21          6           0        6.796136   -0.494146   -0.009473
     22          1           0        6.843367   -1.121476   -0.905043
     23          1           0        6.454816   -1.151048    0.798745
     24          6           0        9.933285    3.103226   -1.156974
     25          1           0       10.541882    3.022528   -2.062072
     26          1           0       10.322800    3.960335   -0.598096
     27          6           0        5.322097    2.972429   -1.141686
     28          1           0        5.562758    3.617451   -1.994702
     29          6           0       11.368269    1.045194   -0.262067
     30          1           0       11.141982    0.000000    0.000000
     31          6           0        8.897420    0.324841   -2.093355
     32          1           0        7.964500   -0.114371   -2.455997
     33          1           0        9.241631    1.022563   -2.861914
     34          1           0        9.630382   -0.486769   -2.028879
     35          6           0        3.430647    1.307061   -0.999410
     36          6           0        3.712401   -0.642777    0.553950
     37          1           0        3.831371   -0.029230    1.457903
     38          1           0        4.275712   -1.565301    0.730219
     39          6           0        3.883684    2.551705   -1.223062
     40          1           0        3.170828    3.344612   -1.447609
     41          6           0        4.428445   -0.811467   -1.880355
     42          1           0        4.913814   -1.759140   -1.628597
     43          1           0        3.435989   -1.052307   -2.269286
     44          1           0        4.989051   -0.345083   -2.695997
     45          6           0        1.945402    1.013312   -1.105719
     46          1           0        1.386302    1.941527   -1.259129
     47          1           0        1.753032    0.380367   -1.986731
     48          6           0        2.222578   -0.982362    0.394214
     49          1           0        2.076369   -1.691250   -0.434173
     50          1           0        1.851751   -1.476963    1.299105
     51          6           0       12.162378    1.020955   -1.590295
     52          1           0       11.481254    0.917702   -2.440996
     53          1           0       12.667587    1.988111   -1.724877
     54          6           0        1.397359    0.275698    0.125349
     55          1           0        1.461631    0.940165    0.995857
     56          6           0       12.244227    1.614161    0.873187
     57          1           0       12.447910    2.679816    0.709911
     58          1           0       13.208454    1.100484    0.943499
     59          1           0       11.746830    1.515698    1.844475
     60          6           0       13.205438   -0.106055   -1.677665
     61          1           0       13.905242   -0.031463   -0.836772
     62          1           0       12.690976   -1.070123   -1.565191
     63          6           0       13.985634   -0.081299   -3.001816
     64          1           0       14.478665    0.896732   -3.099809
     65          1           0       13.268710   -0.142509   -3.833542
     66          6           0       15.052322   -1.183747   -3.199247
     67          1           0       15.495577   -0.999853   -4.189201
     68          6           0       14.445649   -2.596400   -3.232575
     69          1           0       14.034446   -2.883122   -2.257801
     70          1           0       15.205113   -3.340736   -3.498004
     71          1           0       13.637531   -2.666333   -3.970315
     72          6           0       16.192807   -1.096541   -2.171506
     73          1           0       15.844145   -1.331620   -1.159268
     74          1           0       16.991528   -1.806663   -2.414473
     75          1           0       16.633806   -0.093014   -2.148829
 ---------------------------------------------------------------------

 SCF Done:  E(RHF) =  -1198.92459592     A.U. after    9 cycles

 Alpha  occ. eigenvalues --  -20.56056 -20.55375 -11.28230 -11.27798 -11.25048
 Alpha  occ. eigenvalues --  -11.24487 -11.23218 -11.23086 -11.23064 -11.22719
 Alpha  occ. eigenvalues --  -11.22507 -11.22449 -11.22302 -11.22278 -11.22232
 Alpha  occ. eigenvalues --  -11.22227 -11.22052 -11.21632 -11.21625 -11.21477
 Alpha  occ. eigenvalues --  -11.21378 -11.21174 -11.21031 -11.21005 -11.21001
 Alpha  occ. eigenvalues --  -11.20993 -11.20932 -11.20824 -11.20795  -1.35438
 Alpha  occ. eigenvalues --   -1.34457  -1.16025  -1.13905  -1.09521  -1.08018
 Alpha  occ. eigenvalues --   -1.06053  -1.05691  -1.03056  -1.01691  -0.99630
 Alpha  occ. eigenvalues --   -0.97982  -0.96187  -0.92699  -0.92380  -0.92092
 Alpha  occ. eigenvalues --   -0.91258  -0.90655  -0.86498  -0.83981  -0.82970
 Alpha  occ. eigenvalues --   -0.82671  -0.79635  -0.78109  -0.77490  -0.74522
 Alpha  occ. eigenvalues --   -0.72640  -0.71583  -0.69791  -0.67611  -0.66456
 Alpha  occ. eigenvalues --   -0.64458  -0.64110  -0.63854  -0.63665  -0.62621
 Alpha  occ. eigenvalues --   -0.62251  -0.61184  -0.60914  -0.60086  -0.59586
 Alpha  occ. eigenvalues --   -0.58848  -0.58718  -0.57941  -0.57292  -0.56410
 Alpha  occ. eigenvalues --   -0.56162  -0.55832  -0.55351  -0.54942  -0.54370
 Alpha  occ. eigenvalues --   -0.53844  -0.53601  -0.53237  -0.52853  -0.52618
 Alpha  occ. eigenvalues --   -0.52107  -0.51736  -0.51130  -0.50892  -0.49810
 Alpha  occ. eigenvalues --   -0.48565  -0.48367  -0.48281  -0.48038  -0.47404
 Alpha  occ. eigenvalues --   -0.47159  -0.46429  -0.46333  -0.45727  -0.45252
 Alpha  occ. eigenvalues --   -0.45093  -0.44755  -0.44424  -0.44239  -0.43330
 Alpha  occ. eigenvalues --   -0.42792  -0.42356  -0.41797  -0.41585  -0.40058
 Alpha  occ. eigenvalues --   -0.38462  -0.34577
 Alpha virt. eigenvalues --    0.16185   0.20507   0.21352   0.21539   0.22323
 Alpha virt. eigenvalues --    0.22841   0.23874   0.24369   0.24473   0.25239
 Alpha virt. eigenvalues --    0.25626   0.26219   0.26503   0.27173   0.27466

 Mulliken atomic charges:
              1
     1  O   -0.768556
     2  H    0.433693
     3  O   -0.758625
     4  H    0.428732
     5  C   -0.032105
     6  C   -0.144845
     7  H    0.175247
     8  C   -0.187542
     9  H    0.163547
    10  C   -0.163974
    11  H    0.147804
    12  C   -0.149223
    13  H    0.157768
    14  C   -0.295858
    15  H    0.152929
    16  H    0.158204
    17  C   -0.040212
    18  C   -0.328055
    19  H    0.188456
    20  H    0.150507
    21  C   -0.327504
    22  H    0.165379
    23  H    0.165428
    24  C   -0.329899
    25  H    0.165696
    26  H    0.165911
    27  C    0.177539
    28  H    0.180248
    29  C   -0.143603
    30  H    0.155583
    31  C   -0.488907
    32  H    0.160585
    33  H    0.165833
    34  H    0.161961
    35  C    0.072894
    36  C   -0.324429
    37  H    0.161714
    38  H    0.174838
    39  C   -0.286903
    40  H    0.192193
    41  C   -0.480734
    42  H    0.167120
    43  H    0.162899
    44  H    0.171585
    45  C   -0.367263
    46  H    0.194150
    47  H    0.155266
    48  C   -0.340887
    49  H    0.145565
    50  H    0.184040
    51  C   -0.313774
    52  H    0.163306
    53  H    0.152586
    54  C    0.194451
    55  H    0.171250
    56  C   -0.482166
    57  H    0.155878
    58  H    0.160238
    59  H    0.157715
    60  C   -0.314769
    61  H    0.158604
    62  H    0.152629
    63  C   -0.300665
    64  H    0.152118
    65  H    0.150466
    66  C   -0.146265
    67  H    0.155324
    68  C   -0.476024
    69  H    0.155764
    70  H    0.158161
    71  H    0.156194
    72  C   -0.476447
    73  H    0.155778
    74  H    0.158257
    75  H    0.157202
 Sum of Mulliken atomic charges =   0.00000

 Dipole moment (field-independent basis, Debye):
    X=              0.3079    Y=             -2.4100    Z=             -0.9784  Tot=              2.6192
 Quadrupole moment (field-independent basis, Debye-Ang):
   XX=           -195.4360   YY=           -195.0154   ZZ=           -182.2833
   XY=            -11.2680   XZ=             -0.1235   YZ=              1.0584

 Normal termination of Gaussian 09 at Wed May 17 12:21:14 2017.
