 Gaussian 09, Revision C.01,
 Gaussian 09:  EM64L-G09RevC.01 23-Sep-2011

 ----------------------------------------------------------------------
 #P HF/6-31G* SCF(Conver=6) NoSymm Test Pop=chelpg IOp(6/33=2) GFInput
 GFPrint
 ----------------------------------------------------------------------

 (Enter /scratch/michal/g09/l101.exe)
 ----------------------------------------------
 MEP - Input generated by R.E.D.-III.x MOLECULE
 ----------------------------------------------
 Charge =  0 Multiplicity = 1

                          Input orientation:
 ---------------------------------------------------------------------
 Center     Atomic      Atomic             Coordinates (Angstroms)
 Number     Number       Type             X           Y           Z
 ---------------------------------------------------------------------
      1          8           0        0.000000    0.000000    0.000000
      2          1           0        0.966538    0.000000    0.000000
      3          8           0        4.363858   -1.289831   -4.939010
      4          1           0        4.090146   -1.098692   -5.847148
      5          6           0       -1.244502    4.101500   -0.751210
      6          6           0       -1.139238    2.568518   -0.515956
      7          1           0       -0.443899    2.448432    0.327015
      8          6           0       -0.531341    1.772175   -1.676891
      9          1           0       -1.191274    1.852756   -2.552876
     10          6           0        0.868890    2.326701   -2.041571
     11          1           0        1.521689    2.082418   -1.186985
     12          6           0       -1.923799    4.533405    0.595817
     13          1           0       -1.139564    4.465190    1.366512
     14          6           0        0.195725    4.601733   -0.987796
     15          1           0        0.778343    4.439554   -0.069532
     16          1           0        0.228007    5.676840   -1.190211
     17          6           0        1.495340    1.599210   -3.282485
     18          6           0       -2.521704    2.162827    0.012104
     19          1           0       -2.479108    1.241982    0.600329
     20          1           0       -3.221827    1.985791   -0.814485
     21          6           0        0.871486    3.868589   -2.164812
     22          1           0        0.369414    4.167750   -3.090714
     23          1           0        1.902960    4.229088   -2.252370
     24          6           0       -2.960195    3.387656    0.860757
     25          1           0       -3.968894    3.715329    0.581655
     26          1           0       -3.000943    3.136103    1.924552
     27          6           0       -0.448860    0.266051   -1.349973
     28          1           0       -1.463020   -0.149343   -1.367409
     29          6           0       -2.553318    5.945772    0.724405
     30          1           0       -3.378177    6.006932    0.000000
     31          6           0       -2.154972    4.460301   -1.947957
     32          1           0       -1.824917    3.991832   -2.878827
     33          1           0       -3.190282    4.148231   -1.780445
     34          1           0       -2.164944    5.542157   -2.117876
     35          6           0        1.283993    0.083100   -3.176863
     36          6           0        3.029942    1.879794   -3.303563
     37          1           0        3.426570    1.698270   -2.294899
     38          1           0        3.201337    2.940328   -3.516819
     39          6           0        0.413988   -0.482382   -2.323824
     40          1           0        0.333773   -1.568483   -2.288446
     41          6           0        0.860246    2.088144   -4.612852
     42          1           0        1.139316    3.123546   -4.830046
     43          1           0        1.187360    1.482337   -5.461524
     44          1           0       -0.231634    2.027889   -4.576304
     45          6           0        2.107747   -0.789722   -4.105838
     46          1           0        1.950106   -1.846849   -3.870578
     47          1           0        1.774278   -0.645276   -5.145918
     48          6           0        3.832577    1.026841   -4.297835
     49          1           0        3.542569    1.265845   -5.331689
     50          1           0        4.900816    1.255596   -4.211155
     51          6           0       -3.153890    6.123181    2.142759
     52          1           0       -3.823108    5.283120    2.356214
     53          1           0       -2.334678    6.044440    2.873080
     54          6           0        3.608189   -0.464416   -4.049058
     55          1           0        3.990766   -0.723898   -3.054207
     56          6           0       -1.565544    7.083193    0.413177
     57          1           0       -0.683760    7.027618    1.064200
     58          1           0       -2.027044    8.063412    0.565861
     59          1           0       -1.218098    7.054547   -0.621758
     60          6           0       -3.916159    7.435082    2.418245
     61          1           0       -4.249151    7.415449    3.463838
     62          1           0       -3.228453    8.287090    2.352835
     63          6           0       -5.122557    7.721553    1.504064
     64          1           0       -4.772485    7.842356    0.469858
     65          1           0       -5.547257    8.695502    1.789551
     66          6           0       -6.260973    6.679388    1.513364
     67          1           0       -5.840807    5.707208    1.217874
     68          6           0       -7.330884    7.052802    0.474650
     69          1           0       -7.793633    8.017519    0.719660
     70          1           0       -8.128711    6.302269    0.436665
     71          1           0       -6.900792    7.136467   -0.530152
     72          6           0       -6.895112    6.513683    2.903667
     73          1           0       -7.310778    7.466177    3.257654
     74          1           0       -7.713067    5.784783    2.876083
     75          1           0       -6.172088    6.168146    3.649504
 ---------------------------------------------------------------------

 SCF Done:  E(RHF) =  -1198.92566954     A.U. after    9 cycles

 Alpha  occ. eigenvalues --  -20.56052 -20.55386 -11.28228 -11.27810 -11.25021
 Alpha  occ. eigenvalues --  -11.24479 -11.23126 -11.23076 -11.23060 -11.22713
 Alpha  occ. eigenvalues --  -11.22581 -11.22449 -11.22365 -11.22267 -11.22205
 Alpha  occ. eigenvalues --  -11.22193 -11.21967 -11.21871 -11.21524 -11.21449
 Alpha  occ. eigenvalues --  -11.21382 -11.21230 -11.21086 -11.21050 -11.21006
 Alpha  occ. eigenvalues --  -11.20962 -11.20951 -11.20779 -11.20688  -1.35434
 Alpha  occ. eigenvalues --   -1.34468  -1.16007  -1.13875  -1.09689  -1.08004
 Alpha  occ. eigenvalues --   -1.06032  -1.05639  -1.03087  -1.01651  -0.99343
 Alpha  occ. eigenvalues --   -0.97977  -0.96255  -0.92928  -0.92434  -0.92327
 Alpha  occ. eigenvalues --   -0.91166  -0.90636  -0.86489  -0.84342  -0.82699
 Alpha  occ. eigenvalues --   -0.82614  -0.79112  -0.78172  -0.77172  -0.74770
 Alpha  occ. eigenvalues --   -0.72959  -0.71868  -0.69783  -0.67628  -0.66616
 Alpha  occ. eigenvalues --   -0.64579  -0.64243  -0.64073  -0.63286  -0.63009
 Alpha  occ. eigenvalues --   -0.62028  -0.61201  -0.60798  -0.60190  -0.58914
 Alpha  occ. eigenvalues --   -0.58573  -0.58533  -0.57381  -0.57271  -0.56567
 Alpha  occ. eigenvalues --   -0.56096  -0.55912  -0.55483  -0.54845  -0.54597
 Alpha  occ. eigenvalues --   -0.54259  -0.53672  -0.53285  -0.53035  -0.52762
 Alpha  occ. eigenvalues --   -0.52133  -0.51951  -0.51291  -0.50776  -0.49676
 Alpha  occ. eigenvalues --   -0.48872  -0.48258  -0.48071  -0.47968  -0.47367
 Alpha  occ. eigenvalues --   -0.46951  -0.46860  -0.46296  -0.45650  -0.45464
 Alpha  occ. eigenvalues --   -0.45120  -0.44495  -0.44050  -0.43659  -0.43166
 Alpha  occ. eigenvalues --   -0.42962  -0.42792  -0.42392  -0.41550  -0.40048
 Alpha  occ. eigenvalues --   -0.38320  -0.34571
 Alpha virt. eigenvalues --    0.16194   0.20266   0.21000   0.21339   0.22640
 Alpha virt. eigenvalues --    0.22995   0.23346   0.24382   0.24972   0.25293
 Alpha virt. eigenvalues --    0.25989   0.26097   0.26437   0.26793   0.27530

 Mulliken atomic charges:
              1
     1  O   -0.768482
     2  H    0.433706
     3  O   -0.758643
     4  H    0.428732
     5  C   -0.029481
     6  C   -0.145357
     7  H    0.175717
     8  C   -0.187648
     9  H    0.163017
    10  C   -0.163639
    11  H    0.147690
    12  C   -0.134969
    13  H    0.153555
    14  C   -0.298303
    15  H    0.152686
    16  H    0.164048
    17  C   -0.040211
    18  C   -0.326413
    19  H    0.188990
    20  H    0.150461
    21  C   -0.326811
    22  H    0.164658
    23  H    0.164744
    24  C   -0.339484
    25  H    0.159250
    26  H    0.170165
    27  C    0.176500
    28  H    0.180261
    29  C   -0.154156
    30  H    0.155956
    31  C   -0.489076
    32  H    0.159879
    33  H    0.165648
    34  H    0.161861
    35  C    0.073055
    36  C   -0.324187
    37  H    0.161669
    38  H    0.174693
    39  C   -0.286513
    40  H    0.192138
    41  C   -0.480684
    42  H    0.167375
    43  H    0.162804
    44  H    0.171193
    45  C   -0.367176
    46  H    0.194101
    47  H    0.155289
    48  C   -0.340912
    49  H    0.145586
    50  H    0.184026
    51  C   -0.313787
    52  H    0.169144
    53  H    0.151105
    54  C    0.194422
    55  H    0.171229
    56  C   -0.485270
    57  H    0.152688
    58  H    0.164000
    59  H    0.160910
    60  C   -0.317630
    61  H    0.159430
    62  H    0.158532
    63  C   -0.302600
    64  H    0.154796
    65  H    0.150831
    66  C   -0.154615
    67  H    0.157598
    68  C   -0.471434
    69  H    0.152550
    70  H    0.158064
    71  H    0.156489
    72  C   -0.476782
    73  H    0.151946
    74  H    0.158399
    75  H    0.162677
 Sum of Mulliken atomic charges =   0.00000

 Dipole moment (field-independent basis, Debye):
    X=              0.0503    Y=              1.6648    Z=             -1.9085  Tot=              2.5330
 Quadrupole moment (field-independent basis, Debye-Ang):
   XX=           -194.6848   YY=           -188.5322   ZZ=           -175.9058
   XY=              8.3778   XZ=              3.4009   YZ=             -6.0617

 Normal termination of Gaussian 09 at Wed May 17 13:47:25 2017.
