 Gaussian 09, Revision C.01,
 Gaussian 09:  EM64L-G09RevC.01 23-Sep-2011

 ----------------------------------------------------------------------
 #P HF/6-31G* SCF(Conver=6) NoSymm Test Pop=chelpg IOp(6/33=2) GFInput
 GFPrint
 ----------------------------------------------------------------------

 (Enter /scratch/michal/g09/l101.exe)
 ----------------------------------------------
 MEP - Input generated by R.E.D.-III.x MOLECULE
 ----------------------------------------------
 Charge =  0 Multiplicity = 1

                          Input orientation:
 ---------------------------------------------------------------------
 Center     Atomic      Atomic             Coordinates (Angstroms)
 Number     Number       Type             X           Y           Z
 ---------------------------------------------------------------------
      1          8           0        0.000000    0.000000    0.000000
      2          1           0       -0.228961    0.585529   -0.734099
      3          8           0       -2.393926    6.273922    0.000000
      4          1           0       -2.165516    6.846394    0.745842
      5          6           0        4.250431    0.529143    0.733279
      6          6           0        2.751268    0.137547    0.759377
      7          1           0        2.492182   -0.109726   -0.279539
      8          6           0        1.805627    1.274665    1.161500
      9          1           0        2.015837    1.571244    2.199220
     10          6           0        2.009528    2.498106    0.227874
     11          1           0        1.632982    2.184867   -0.760093
     12          6           0        4.864782   -0.843915    0.316272
     13          1           0        4.528021   -0.979799   -0.721619
     14          6           0        4.408378    1.654086   -0.304300
     15          1           0        4.145637    1.258720   -1.296092
     16          1           0        5.449951    1.996737   -0.368842
     17          6           0        1.126573    3.723619    0.653877
     18          6           0        2.715627   -1.192590    1.534468
     19          1           0        1.851645   -1.800249    1.251507
     20          1           0        2.644717   -1.017532    2.615681
     21          6           0        3.503920    2.859691    0.026294
     22          1           0        3.892587    3.348261    0.925192
     23          1           0        3.594903    3.597454   -0.779109
     24          6           0        4.070841   -1.878806    1.174226
     25          1           0        4.616111   -2.145331    2.083841
     26          1           0        3.916723   -2.811376    0.621693
     27          6           0        0.330593    0.822247    1.144212
     28          1           0        0.164199    0.152018    1.995509
     29          6           0        6.415034   -0.990745    0.263678
     30          1           0        6.811682    0.000000    0.000000
     31          6           0        4.771793    0.995358    2.110508
     32          1           0        4.235758    1.873369    2.479873
     33          1           0        4.673783    0.217580    2.873100
     34          1           0        5.830610    1.267534    2.048267
     35          6           0       -0.295208    3.263452    1.003669
     36          6           0        1.038716    4.717615   -0.545584
     37          1           0        0.794591    4.143752   -1.450452
     38          1           0        2.023785    5.163762   -0.718911
     39          6           0       -0.621745    1.979436    1.225156
     40          1           0       -1.657745    1.724986    1.447096
     41          6           0        1.718540    4.453691    1.890444
     42          1           0        2.654425    4.963140    1.642182
     43          1           0        1.032650    5.212138    2.275891
     44          1           0        1.915786    3.753151    2.707436
     45          6           0       -1.357934    4.341947    1.108325
     46          1           0       -2.342700    3.889151    1.259664
     47          1           0       -1.162564    4.973457    1.989738
     48          6           0       -0.002827    5.836085   -0.388497
     49          1           0        0.272717    6.504883    0.440300
     50          1           0       -0.029203    6.453358   -1.293626
     51          6           0        7.085994   -1.437467    1.586019
     52          1           0        6.623928   -0.928203    2.438380
     53          1           0        6.885196   -2.507653    1.729922
     54          6           0       -1.393355    5.259941   -0.122847
     55          1           0       -1.711908    4.674248   -0.994014
     56          6           0        6.804460   -1.950095   -0.880066
     57          1           0        6.378484   -2.947510   -0.713657
     58          1           0        7.889314   -2.065683   -0.969358
     59          1           0        6.432612   -1.586318   -1.844329
     60          6           0        8.611408   -1.216869    1.670811
     61          1           0        8.977288   -1.762358    2.549702
     62          1           0        9.103461   -1.678003    0.806142
     63          6           0        9.028591    0.259114    1.786742
     64          1           0        8.513893    0.699666    2.653171
     65          1           0        8.670293    0.811499    0.907810
     66          6           0       10.544233    0.534316    1.933791
     67          1           0       10.645418    1.627467    2.006024
     68          6           0       11.349996    0.088199    0.702232
     69          1           0       11.353055   -1.002492    0.593984
     70          1           0       12.394368    0.410874    0.782233
     71          1           0       10.938485    0.514961   -0.220068
     72          6           0       11.135124   -0.057838    3.224220
     73          1           0       11.135672   -1.153684    3.204595
     74          1           0       12.173230    0.266078    3.360829
     75          1           0       10.567178    0.260892    4.106272
 ---------------------------------------------------------------------

 SCF Done:  E(RHF) =  -1198.92228381     A.U. after    9 cycles

 Alpha  occ. eigenvalues --  -20.56052 -20.55365 -11.28226 -11.27787 -11.25042
 Alpha  occ. eigenvalues --  -11.24479 -11.23208 -11.23081 -11.23058 -11.22716
 Alpha  occ. eigenvalues --  -11.22577 -11.22441 -11.22282 -11.22271 -11.22212
 Alpha  occ. eigenvalues --  -11.22187 -11.22045 -11.21628 -11.21622 -11.21517
 Alpha  occ. eigenvalues --  -11.21414 -11.21247 -11.21063 -11.21042 -11.20982
 Alpha  occ. eigenvalues --  -11.20975 -11.20864 -11.20799 -11.20779  -1.35434
 Alpha  occ. eigenvalues --   -1.34446  -1.16013  -1.13889  -1.09539  -1.07987
 Alpha  occ. eigenvalues --   -1.06041  -1.05636  -1.03042  -1.01653  -0.99490
 Alpha  occ. eigenvalues --   -0.97963  -0.96156  -0.92686  -0.92418  -0.92075
 Alpha  occ. eigenvalues --   -0.91374  -0.90678  -0.86492  -0.84353  -0.83082
 Alpha  occ. eigenvalues --   -0.82654  -0.79509  -0.78093  -0.77487  -0.74481
 Alpha  occ. eigenvalues --   -0.72338  -0.71579  -0.69789  -0.67609  -0.66498
 Alpha  occ. eigenvalues --   -0.64449  -0.64080  -0.63870  -0.63190  -0.62684
 Alpha  occ. eigenvalues --   -0.62156  -0.61204  -0.60999  -0.60343  -0.59222
 Alpha  occ. eigenvalues --   -0.58880  -0.58741  -0.58094  -0.57253  -0.56312
 Alpha  occ. eigenvalues --   -0.56034  -0.55761  -0.55473  -0.54982  -0.54489
 Alpha  occ. eigenvalues --   -0.53910  -0.53678  -0.53472  -0.52983  -0.52619
 Alpha  occ. eigenvalues --   -0.52176  -0.52049  -0.51132  -0.50703  -0.49781
 Alpha  occ. eigenvalues --   -0.48952  -0.48380  -0.48143  -0.48042  -0.47807
 Alpha  occ. eigenvalues --   -0.46964  -0.46597  -0.45987  -0.45689  -0.45335
 Alpha  occ. eigenvalues --   -0.45040  -0.44735  -0.44316  -0.43554  -0.43251
 Alpha  occ. eigenvalues --   -0.42807  -0.42350  -0.42038  -0.41531  -0.40047
 Alpha  occ. eigenvalues --   -0.38428  -0.34569
 Alpha virt. eigenvalues --    0.16194   0.20518   0.21289   0.21383   0.22536
 Alpha virt. eigenvalues --    0.22835   0.23852   0.24077   0.24658   0.25265
 Alpha virt. eigenvalues --    0.25616   0.26195   0.26421   0.26962   0.27140

 Mulliken atomic charges:
              1
     1  O   -0.768543
     2  H    0.433646
     3  O   -0.758640
     4  H    0.428724
     5  C   -0.032016
     6  C   -0.144835
     7  H    0.175303
     8  C   -0.187630
     9  H    0.163553
    10  C   -0.163909
    11  H    0.147789
    12  C   -0.147993
    13  H    0.157640
    14  C   -0.295830
    15  H    0.152777
    16  H    0.157410
    17  C   -0.040276
    18  C   -0.327887
    19  H    0.188309
    20  H    0.150563
    21  C   -0.327312
    22  H    0.165591
    23  H    0.165270
    24  C   -0.330012
    25  H    0.165202
    26  H    0.165751
    27  C    0.177570
    28  H    0.180248
    29  C   -0.148641
    30  H    0.160902
    31  C   -0.491565
    32  H    0.159935
    33  H    0.165421
    34  H    0.165529
    35  C    0.072853
    36  C   -0.324349
    37  H    0.161690
    38  H    0.174781
    39  C   -0.286868
    40  H    0.192162
    41  C   -0.480692
    42  H    0.167140
    43  H    0.162842
    44  H    0.171568
    45  C   -0.367258
    46  H    0.194146
    47  H    0.155255
    48  C   -0.340883
    49  H    0.145534
    50  H    0.184011
    51  C   -0.317585
    52  H    0.162432
    53  H    0.156407
    54  C    0.194445
    55  H    0.171238
    56  C   -0.482575
    57  H    0.155558
    58  H    0.160448
    59  H    0.157621
    60  C   -0.317372
    61  H    0.159661
    62  H    0.158292
    63  C   -0.305688
    64  H    0.150864
    65  H    0.153377
    66  C   -0.145357
    67  H    0.154456
    68  C   -0.476477
    69  H    0.156581
    70  H    0.158543
    71  H    0.156298
    72  C   -0.476687
    73  H    0.156700
    74  H    0.158304
    75  H    0.156542
 Sum of Mulliken atomic charges =   0.00000

 Dipole moment (field-independent basis, Debye):
    X=              1.6439    Y=              1.8908    Z=              0.9530  Tot=              2.6806
 Quadrupole moment (field-independent basis, Debye-Ang):
   XX=           -192.1757   YY=           -182.6198   ZZ=           -182.7008
   XY=             10.9989   XZ=             -2.1108   YZ=              7.2103

 Normal termination of Gaussian 09 at Wed May 17 12:27:50 2017.
