 Gaussian 09, Revision C.01,
 Gaussian 09:  EM64L-G09RevC.01 23-Sep-2011

 ----------------------------------------------------------------------
 #P HF/6-31G* SCF(Conver=6) NoSymm Test Pop=chelpg IOp(6/33=2) GFInput
 GFPrint
 ----------------------------------------------------------------------

 (Enter /scratch/michal/g09/l101.exe)
 ----------------------------------------------
 MEP - Input generated by R.E.D.-III.x MOLECULE
 ----------------------------------------------
 Charge =  0 Multiplicity = 1

                          Input orientation:
 ---------------------------------------------------------------------
 Center     Atomic      Atomic             Coordinates (Angstroms)
 Number     Number       Type             X           Y           Z
 ---------------------------------------------------------------------
      1          8           0        6.092308    2.826182    0.000000
      2          1           0        5.522163    2.562610    0.734599
      3          8           0        0.000000    0.000000    0.000000
      4          1           0       -0.236551   -0.567086   -0.747414
      5          6           0        8.784060   -0.510761   -0.736703
      6          6           0        7.967668    0.813543   -0.775420
      7          1           0        7.959193    1.185765    0.258364
      8          6           0        6.494330    0.656386   -1.169745
      9          1           0        6.432760    0.301965   -2.208666
     10          6           0        5.788326   -0.364812   -0.240601
     11          1           0        5.740597    0.114023    0.751671
     12          6           0       10.177880    0.077222   -0.321751
     13          1           0       10.027283    0.425198    0.709464
     14          6           0        8.094683   -1.424368    0.294858
     15          1           0        8.163782   -0.957160    1.287124
     16          1           0        8.596737   -2.396328    0.369180
     17          6           0        4.299879   -0.625290   -0.663517
     18          6           0        8.851071    1.787338   -1.574194
     19          1           0        8.636905    2.829418   -1.320859
     20          1           0        8.681265    1.676160   -2.652846
     21          6           0        6.611875   -1.662736   -0.056783
     22          1           0        6.565197   -2.265608   -0.969345
     23          1           0        6.160239   -2.275025    0.732247
     24          6           0       10.300197    1.368151   -1.193495
     25          1           0       10.900144    1.185273   -2.090797
     26          1           0       10.818078    2.154912   -0.634147
     27          6           0        5.753758    2.010361   -1.146413
     28          1           0        6.099842    2.609759   -1.996329
     29          6           0       11.496335   -0.747380   -0.272714
     30          1           0       12.256987    0.000000    0.000000
     31          6           0        8.829828   -1.205776   -2.117358
     32          1           0        7.832909   -1.327902   -2.548837
     33          1           0        9.426501   -0.645962   -2.842055
     34          1           0        9.266155   -2.205488   -2.034375
     35          6           0        3.601968    0.697402   -1.007246
     36          6           0        3.546447   -1.279215    0.536076
     37          1           0        3.772713   -0.699123    1.441595
     38          1           0        3.942294   -2.285998    0.706999
     39          6           0        4.263905    1.845767   -1.225212
     40          1           0        3.699088    2.751926   -1.442426
     41          6           0        4.212454   -1.558630   -1.901842
     42          1           0        4.531698   -2.575939   -1.656491
     43          1           0        3.190782   -1.625689   -2.283885
     44          1           0        4.838679   -1.190939   -2.720247
     45          6           0        2.087968    0.666825   -1.109108
     46          1           0        1.698083    1.678885   -1.255457
     47          1           0        1.785755    0.081858   -1.992456
     48          6           0        2.019847   -1.354715    0.380950
     49          1           0        1.749977   -2.023584   -0.449606
     50          1           0        1.571812   -1.781705    1.285343
     51          6           0       11.533664   -1.839117    0.824918
     52          1           0       10.787754   -2.608730    0.588381
     53          1           0       12.508719   -2.342854    0.753948
     54          6           0        1.424421    0.028721    0.120812
     55          1           0        1.605767    0.667525    0.994009
     56          6           0       11.983249   -1.364196   -1.599814
     57          1           0       11.423263   -2.265586   -1.865779
     58          1           0       13.035730   -1.654788   -1.504542
     59          1           0       11.914203   -0.667560   -2.440345
     60          6           0       11.340191   -1.391436    2.286935
     61          1           0       10.350923   -0.937439    2.413727
     62          1           0       11.335647   -2.296491    2.907652
     63          6           0       12.426469   -0.429908    2.797212
     64          1           0       12.379333    0.507752    2.227662
     65          1           0       13.412277   -0.867125    2.579739
     66          6           0       12.375343   -0.074599    4.302432
     67          1           0       13.202944    0.629737    4.473248
     68          6           0       12.625916   -1.289946    5.210715
     69          1           0       11.809591   -2.018774    5.148983
     70          1           0       12.707916   -0.981282    6.259180
     71          1           0       13.555497   -1.804790    4.940727
     72          6           0       11.077426    0.650424    4.695476
     73          1           0       10.205726   -0.008965    4.612254
     74          1           0       11.124796    0.999611    5.733291
     75          1           0       10.898612    1.523872    4.057444
 ---------------------------------------------------------------------

 SCF Done:  E(RHF) =  -1198.91911673     A.U. after    9 cycles

 Alpha  occ. eigenvalues --  -20.56050 -20.55382 -11.28226 -11.27806 -11.25028
 Alpha  occ. eigenvalues --  -11.24479 -11.23163 -11.23079 -11.23058 -11.22712
 Alpha  occ. eigenvalues --  -11.22568 -11.22477 -11.22446 -11.22285 -11.22263
 Alpha  occ. eigenvalues --  -11.22202 -11.21991 -11.21804 -11.21602 -11.21427
 Alpha  occ. eigenvalues --  -11.21403 -11.21337 -11.21044 -11.21009 -11.20983
 Alpha  occ. eigenvalues --  -11.20975 -11.20784 -11.20745 -11.20735  -1.35431
 Alpha  occ. eigenvalues --   -1.34465  -1.15995  -1.13827  -1.09499  -1.07956
 Alpha  occ. eigenvalues --   -1.06038  -1.05659  -1.03095  -1.01626  -0.99457
 Alpha  occ. eigenvalues --   -0.97941  -0.96314  -0.92631  -0.92387  -0.92329
 Alpha  occ. eigenvalues --   -0.91541  -0.90542  -0.86485  -0.84187  -0.83098
 Alpha  occ. eigenvalues --   -0.82529  -0.79201  -0.78541  -0.77052  -0.74686
 Alpha  occ. eigenvalues --   -0.72978  -0.71242  -0.69692  -0.67576  -0.66296
 Alpha  occ. eigenvalues --   -0.64634  -0.64103  -0.63861  -0.63034  -0.62485
 Alpha  occ. eigenvalues --   -0.62333  -0.61476  -0.61115  -0.59781  -0.59132
 Alpha  occ. eigenvalues --   -0.59055  -0.58576  -0.57687  -0.57444  -0.56294
 Alpha  occ. eigenvalues --   -0.56066  -0.55832  -0.55551  -0.54890  -0.54667
 Alpha  occ. eigenvalues --   -0.54159  -0.53721  -0.53530  -0.53141  -0.52692
 Alpha  occ. eigenvalues --   -0.52090  -0.51596  -0.51254  -0.50507  -0.50003
 Alpha  occ. eigenvalues --   -0.48814  -0.48374  -0.48078  -0.48045  -0.47529
 Alpha  occ. eigenvalues --   -0.47019  -0.46834  -0.46302  -0.45708  -0.45275
 Alpha  occ. eigenvalues --   -0.45042  -0.44615  -0.44238  -0.43316  -0.43245
 Alpha  occ. eigenvalues --   -0.42825  -0.42453  -0.42068  -0.41560  -0.39977
 Alpha  occ. eigenvalues --   -0.38297  -0.34570
 Alpha virt. eigenvalues --    0.16194   0.20115   0.20952   0.21459   0.22011
 Alpha virt. eigenvalues --    0.22999   0.23729   0.24476   0.24703   0.25076
 Alpha virt. eigenvalues --    0.25250   0.26084   0.26778   0.26885   0.27647

 Mulliken atomic charges:
              1
     1  O   -0.768511
     2  H    0.433696
     3  O   -0.758638
     4  H    0.428732
     5  C   -0.022760
     6  C   -0.148640
     7  H    0.176434
     8  C   -0.188157
     9  H    0.163125
    10  C   -0.163550
    11  H    0.147492
    12  C   -0.155591
    13  H    0.160342
    14  C   -0.301900
    15  H    0.153732
    16  H    0.162189
    17  C   -0.040455
    18  C   -0.326223
    19  H    0.187784
    20  H    0.151010
    21  C   -0.326808
    22  H    0.166176
    23  H    0.164698
    24  C   -0.328062
    25  H    0.158567
    26  H    0.164693
    27  C    0.177307
    28  H    0.180430
    29  C   -0.147627
    30  H    0.158198
    31  C   -0.486501
    32  H    0.158847
    33  H    0.167064
    34  H    0.160502
    35  C    0.073140
    36  C   -0.324227
    37  H    0.161638
    38  H    0.174691
    39  C   -0.286807
    40  H    0.192164
    41  C   -0.480410
    42  H    0.167457
    43  H    0.162749
    44  H    0.171247
    45  C   -0.367195
    46  H    0.194116
    47  H    0.155331
    48  C   -0.340896
    49  H    0.145614
    50  H    0.184029
    51  C   -0.302746
    52  H    0.154360
    53  H    0.151746
    54  C    0.194406
    55  H    0.171235
    56  C   -0.481335
    57  H    0.155381
    58  H    0.157744
    59  H    0.160388
    60  C   -0.321623
    61  H    0.161947
    62  H    0.158603
    63  C   -0.305398
    64  H    0.156498
    65  H    0.150202
    66  C   -0.145777
    67  H    0.155604
    68  C   -0.476177
    69  H    0.155247
    70  H    0.158281
    71  H    0.156811
    72  C   -0.477301
    73  H    0.154796
    74  H    0.158637
    75  H    0.158235
 Sum of Mulliken atomic charges =   0.00000

 Dipole moment (field-independent basis, Debye):
    X=             -0.0081    Y=             -2.3420    Z=             -0.8533  Tot=              2.4926
 Quadrupole moment (field-independent basis, Debye-Ang):
   XX=           -196.5854   YY=           -190.8145   ZZ=           -183.3182
   XY=             -9.5210   XZ=              2.4235   YZ=              1.1576

 Normal termination of Gaussian 09 at Wed May 17 13:00:15 2017.
