 Gaussian 09, Revision C.01,
 Gaussian 09:  EM64L-G09RevC.01 23-Sep-2011

 ----------------------------------------------------------------------
 #P HF/6-31G* SCF(Conver=6) NoSymm Test Pop=chelpg IOp(6/33=2) GFInput
 GFPrint
 ----------------------------------------------------------------------

 (Enter /scratch/michal/g09/l101.exe)
 ----------------------------------------------
 MEP - Input generated by R.E.D.-III.x MOLECULE
 ----------------------------------------------
 Charge =  0 Multiplicity = 1

                          Input orientation:
 ---------------------------------------------------------------------
 Center     Atomic      Atomic             Coordinates (Angstroms)
 Number     Number       Type             X           Y           Z
 ---------------------------------------------------------------------
      1          8           0        5.746489    3.478843    0.000000
      2          1           0        5.113307    3.314603    0.711545
      3          8           0        0.000000    0.000000    0.000000
      4          1           0       -0.079459   -0.742531   -0.615228
      5          6           0        8.816188    0.415677    0.347220
      6          6           0        7.887881    1.588674   -0.073763
      7          1           0        7.710450    2.165485    0.845012
      8          6           0        6.501781    1.170441   -0.578882
      9          1           0        6.616580    0.589921   -1.505806
     10          6           0        5.777288    0.301333    0.480258
     11          1           0        5.553812    0.977025    1.322660
     12          6           0       10.097191    1.226083    0.750120
     13          1           0        9.847407    1.719626    1.701280
     14          6           0        8.087522   -0.329983    1.483577
     15          1           0        7.990300    0.348588    2.343328
     16          1           0        8.657493   -1.196764    1.833296
     17          6           0        4.389399   -0.225114   -0.028017
     18          6           0        8.764443    2.475496   -0.970441
     19          1           0        8.417785    3.512615   -0.977778
     20          1           0        8.747807    2.122999   -2.009780
     21          6           0        6.689153   -0.813021    1.046479
     22          1           0        6.815557   -1.604076    0.300130
     23          1           0        6.200489   -1.286506    1.905912
     24          6           0       10.185004    2.328071   -0.356939
     25          1           0       10.910781    2.036025   -1.125215
     26          1           0       10.543485    3.274609    0.059036
     27          6           0        5.641192    2.395452   -0.953769
     28          1           0        6.039727    2.830292   -1.877588
     29          6           0       11.438965    0.481044    0.956566
     30          1           0       11.692307    0.000000    0.000000
     31          6           0        9.133799   -0.545188   -0.821241
     32          1           0        8.231503   -0.970530   -1.268070
     33          1           0        9.684858   -0.045449   -1.623600
     34          1           0        9.748364   -1.384036   -0.477226
     35          6           0        3.622610    0.893991   -0.745030
     36          6           0        3.547691   -0.684072    1.202802
     37          1           0        3.594886    0.105843    1.965349
     38          1           0        4.010810   -1.571257    1.647809
     39          6           0        4.197050    2.037798   -1.152576
     40          1           0        3.583831    2.798233   -1.635270
     41          6           0        4.555125   -1.412603   -1.015212
     42          1           0        4.927815   -2.305461   -0.504366
     43          1           0        3.605084   -1.682703   -1.482800
     44          1           0        5.251363   -1.163368   -1.821629
     45          6           0        2.145258    0.657232   -1.000143
     46          1           0        1.684853    1.556811   -1.420267
     47          1           0        2.020068   -0.140269   -1.749908
     48          6           0        2.069581   -0.978940    0.904977
     49          1           0        1.977858   -1.842474    0.229722
     50          1           0        1.546983   -1.247561    1.830024
     51          6           0       12.618669    1.460943    1.220424
     52          1           0       13.531053    0.859726    1.343273
     53          1           0       12.774436    2.044113    0.305014
     54          6           0        1.386171    0.229310    0.265202
     55          1           0        1.387408    1.062088    0.979276
     56          6           0       11.367958   -0.643567    2.008004
     57          1           0       10.902633   -0.310500    2.940953
     58          1           0       12.372158   -1.009152    2.250545
     59          1           0       10.791938   -1.498594    1.643247
     60          6           0       12.532680    2.465145    2.391638
     61          1           0       13.309068    3.220042    2.212779
     62          1           0       11.580235    3.006832    2.346928
     63          6           0       12.736178    1.881685    3.801306
     64          1           0       13.619632    1.226930    3.788027
     65          1           0       11.887503    1.239242    4.062871
     66          6           0       12.917280    2.913792    4.940970
     67          1           0       13.009401    2.325393    5.865985
     68          6           0       11.693770    3.830260    5.108454
     69          1           0       11.568268    4.497440    4.247916
     70          1           0       11.797414    4.461161    5.998685
     71          1           0       10.770905    3.248296    5.217528
     72          6           0       14.209376    3.736678    4.804745
     73          1           0       14.178842    4.403779    3.935656
     74          1           0       14.365198    4.363926    5.689953
     75          1           0       15.086082    3.087100    4.697462
 ---------------------------------------------------------------------

 SCF Done:  E(RHF) =  -1198.92115504     A.U. after    9 cycles

 Alpha  occ. eigenvalues --  -20.56048 -20.55381 -11.28224 -11.27801 -11.25017
 Alpha  occ. eigenvalues --  -11.24473 -11.23130 -11.23073 -11.23056 -11.22709
 Alpha  occ. eigenvalues --  -11.22549 -11.22442 -11.22369 -11.22261 -11.22215
 Alpha  occ. eigenvalues --  -11.22200 -11.21967 -11.21772 -11.21520 -11.21370
 Alpha  occ. eigenvalues --  -11.21288 -11.21222 -11.21053 -11.21039 -11.20932
 Alpha  occ. eigenvalues --  -11.20892 -11.20872 -11.20752 -11.20700  -1.35429
 Alpha  occ. eigenvalues --   -1.34464  -1.16005  -1.13877  -1.09394  -1.07940
 Alpha  occ. eigenvalues --   -1.06025  -1.05533  -1.03075  -1.01558  -0.99266
 Alpha  occ. eigenvalues --   -0.97910  -0.96266  -0.92932  -0.92396  -0.92249
 Alpha  occ. eigenvalues --   -0.91400  -0.90684  -0.86483  -0.84363  -0.82985
 Alpha  occ. eigenvalues --   -0.82606  -0.79147  -0.78151  -0.77026  -0.74478
 Alpha  occ. eigenvalues --   -0.72731  -0.71488  -0.69807  -0.67661  -0.66662
 Alpha  occ. eigenvalues --   -0.64815  -0.64207  -0.63795  -0.62954  -0.62351
 Alpha  occ. eigenvalues --   -0.61513  -0.61407  -0.61091  -0.60136  -0.59672
 Alpha  occ. eigenvalues --   -0.58680  -0.58562  -0.57628  -0.56783  -0.56527
 Alpha  occ. eigenvalues --   -0.56281  -0.55722  -0.55551  -0.54843  -0.54478
 Alpha  occ. eigenvalues --   -0.54139  -0.53779  -0.53343  -0.52821  -0.52553
 Alpha  occ. eigenvalues --   -0.52180  -0.51938  -0.51426  -0.50779  -0.50372
 Alpha  occ. eigenvalues --   -0.48427  -0.48234  -0.48140  -0.48033  -0.47366
 Alpha  occ. eigenvalues --   -0.47046  -0.46721  -0.46386  -0.45638  -0.45221
 Alpha  occ. eigenvalues --   -0.44863  -0.44591  -0.43656  -0.43546  -0.43274
 Alpha  occ. eigenvalues --   -0.42886  -0.42636  -0.41944  -0.41585  -0.40058
 Alpha  occ. eigenvalues --   -0.38352  -0.34565
 Alpha virt. eigenvalues --    0.16201   0.20360   0.21161   0.21397   0.22220
 Alpha virt. eigenvalues --    0.23211   0.24171   0.24215   0.24556   0.25330
 Alpha virt. eigenvalues --    0.25365   0.26037   0.26756   0.26964   0.27665

 Mulliken atomic charges:
              1
     1  O   -0.768494
     2  H    0.433691
     3  O   -0.758639
     4  H    0.428725
     5  C   -0.028414
     6  C   -0.144756
     7  H    0.175380
     8  C   -0.187755
     9  H    0.163106
    10  C   -0.163602
    11  H    0.147492
    12  C   -0.142660
    13  H    0.156372
    14  C   -0.298204
    15  H    0.151671
    16  H    0.164711
    17  C   -0.040172
    18  C   -0.326789
    19  H    0.188820
    20  H    0.150589
    21  C   -0.326971
    22  H    0.164850
    23  H    0.164658
    24  C   -0.336501
    25  H    0.158141
    26  H    0.169900
    27  C    0.176560
    28  H    0.180352
    29  C   -0.142755
    30  H    0.154986
    31  C   -0.489732
    32  H    0.159957
    33  H    0.166038
    34  H    0.161938
    35  C    0.072957
    36  C   -0.324175
    37  H    0.161597
    38  H    0.174711
    39  C   -0.286344
    40  H    0.192129
    41  C   -0.480767
    42  H    0.167368
    43  H    0.162798
    44  H    0.171270
    45  C   -0.367173
    46  H    0.194099
    47  H    0.155279
    48  C   -0.340924
    49  H    0.145621
    50  H    0.184006
    51  C   -0.313700
    52  H    0.151996
    53  H    0.162288
    54  C    0.194412
    55  H    0.171258
    56  C   -0.486675
    57  H    0.157957
    58  H    0.158285
    59  H    0.158925
    60  C   -0.319920
    61  H    0.158190
    62  H    0.162415
    63  C   -0.302817
    64  H    0.149454
    65  H    0.156832
    66  C   -0.146918
    67  H    0.154444
    68  C   -0.476600
    69  H    0.157871
    70  H    0.158024
    71  H    0.155120
    72  C   -0.476386
    73  H    0.156020
    74  H    0.158092
    75  H    0.156488
 Sum of Mulliken atomic charges =   0.00000

 Dipole moment (field-independent basis, Debye):
    X=              0.2980    Y=             -2.5801    Z=             -0.3824  Tot=              2.6252
 Quadrupole moment (field-independent basis, Debye-Ang):
   XX=           -196.1845   YY=           -192.9406   ZZ=           -182.8259
   XY=            -11.6412   XZ=              1.1443   YZ=              1.6419

 Normal termination of Gaussian 09 at Wed May 17 12:09:55 2017.
