 Gaussian 09, Revision C.01,
 Gaussian 09:  EM64L-G09RevC.01 23-Sep-2011

 ----------------------------------------------------------------------
 #P HF/6-31G* SCF(Conver=6) NoSymm Test Pop=chelpg IOp(6/33=2) GFInput
 GFPrint
 ----------------------------------------------------------------------

 (Enter /scratch/michal/g09/l101.exe)
 ----------------------------------------------
 MEP - Input generated by R.E.D.-III.x MOLECULE
 ----------------------------------------------
 Charge =  0 Multiplicity = 1

                          Input orientation:
 ---------------------------------------------------------------------
 Center     Atomic      Atomic             Coordinates (Angstroms)
 Number     Number       Type             X           Y           Z
 ---------------------------------------------------------------------
      1          8           0        0.000000    0.000000    0.000000
      2          1           0        0.966543    0.000000    0.000000
      3          8           0        4.354790   -1.276723   -4.952167
      4          1           0        4.079800   -1.081053   -5.858957
      5          6           0       -1.232575    4.107107   -0.731939
      6          6           0       -1.133668    2.573187   -0.503386
      7          1           0       -0.437595    2.447210    0.338017
      8          6           0       -0.528627    1.780908   -1.668373
      9          1           0       -1.188991    1.867101   -2.543519
     10          6           0        0.873226    2.333650   -2.031141
     11          1           0        1.526088    2.081509   -1.178885
     12          6           0       -1.910054    4.530288    0.618059
     13          1           0       -1.127813    4.427855    1.384939
     14          6           0        0.207974    4.605885   -0.964601
     15          1           0        0.790286    4.438279   -0.047092
     16          1           0        0.239952    5.682275   -1.161663
     17          6           0        1.495606    1.611052   -3.277001
     18          6           0       -2.517740    2.168789    0.025399
     19          1           0       -2.471441    1.255818    0.625529
     20          1           0       -3.214216    1.976159   -0.800792
     21          6           0        0.882916    3.876704   -2.144807
     22          1           0        0.384602    4.183751   -3.070127
     23          1           0        1.916323    4.232678   -2.227945
     24          6           0       -2.968772    3.403176    0.855342
     25          1           0       -3.961493    3.742954    0.536958
     26          1           0       -3.053956    3.162700    1.919513
     27          6           0       -0.449195    0.273177   -1.348398
     28          1           0       -1.464342   -0.139765   -1.366763
     29          6           0       -2.511553    5.950338    0.759330
     30          1           0       -3.302405    6.043071    0.000000
     31          6           0       -2.139336    4.477108   -1.927784
     32          1           0       -1.806519    4.016356   -2.861395
     33          1           0       -3.175673    4.165128   -1.767040
     34          1           0       -2.146261    5.560589   -2.088415
     35          6           0        1.281133    0.094888   -3.178121
     36          6           0        3.030711    1.888588   -3.300343
     37          1           0        3.429287    1.702128   -2.293356
     38          1           0        3.203682    2.949659   -3.509576
     39          6           0        0.410941   -0.472688   -2.326655
     40          1           0        0.328184   -1.558757   -2.296413
     41          6           0        0.858646    2.107347   -4.603672
     42          1           0        1.137601    3.143825   -4.815694
     43          1           0        1.184601    1.505977   -5.455898
     44          1           0       -0.233164    2.046909   -4.566085
     45          6           0        2.101276   -0.775390   -4.112789
     46          1           0        1.941759   -1.833274   -3.882255
     47          1           0        1.766178   -0.625162   -5.151528
     48          6           0        3.829524    1.038238   -4.299928
     49          1           0        3.538005    1.282339   -5.332150
     50          1           0        4.898405    1.264385   -4.214349
     51          6           0       -3.251951    6.142882    2.115220
     52          1           0       -3.671434    7.157692    2.124209
     53          1           0       -4.120601    5.473733    2.114513
     54          6           0        3.602478   -0.453630   -4.057236
     55          1           0        3.986187   -0.718286   -3.064181
     56          6           0       -1.501952    7.080922    0.481182
     57          1           0       -0.569583    6.950791    1.039618
     58          1           0       -1.924301    8.052870    0.759872
     59          1           0       -1.241581    7.135363   -0.579443
     60          6           0       -2.492921    5.889673    3.437615
     61          1           0       -3.247226    5.772866    4.226442
     62          1           0       -1.984754    4.918696    3.385904
     63          6           0       -1.465363    6.940691    3.904662
     64          1           0       -0.634380    6.991818    3.191633
     65          1           0       -1.025687    6.581318    4.847450
     66          6           0       -1.991732    8.371908    4.143953
     67          1           0       -2.421268    8.744750    3.203324
     68          6           0       -0.830422    9.306350    4.520061
     69          1           0       -0.361112    8.987903    5.459857
     70          1           0       -1.176305   10.337634    4.654724
     71          1           0       -0.054322    9.311012    3.746068
     72          6           0       -3.092736    8.423499    5.215339
     73          1           0       -2.722847    8.033816    6.172809
     74          1           0       -3.426379    9.453822    5.383626
     75          1           0       -3.971926    7.835185    4.933702
 ---------------------------------------------------------------------

 SCF Done:  E(RHF) =  -1198.92107925     A.U. after    9 cycles

 Alpha  occ. eigenvalues --  -20.56053 -20.55391 -11.28229 -11.27812 -11.25025
 Alpha  occ. eigenvalues --  -11.24480 -11.23142 -11.23079 -11.23062 -11.22715
 Alpha  occ. eigenvalues --  -11.22568 -11.22450 -11.22275 -11.22273 -11.22268
 Alpha  occ. eigenvalues --  -11.22212 -11.21981 -11.21784 -11.21536 -11.21421
 Alpha  occ. eigenvalues --  -11.21336 -11.21265 -11.21065 -11.21052 -11.20952
 Alpha  occ. eigenvalues --  -11.20940 -11.20901 -11.20839 -11.20709  -1.35435
 Alpha  occ. eigenvalues --   -1.34472  -1.16015  -1.13891  -1.09480  -1.07966
 Alpha  occ. eigenvalues --   -1.06031  -1.05500  -1.03088  -1.01556  -0.99391
 Alpha  occ. eigenvalues --   -0.97937  -0.96287  -0.92960  -0.92441  -0.92282
 Alpha  occ. eigenvalues --   -0.91431  -0.90709  -0.86491  -0.84058  -0.82795
 Alpha  occ. eigenvalues --   -0.82608  -0.79311  -0.78333  -0.77158  -0.75053
 Alpha  occ. eigenvalues --   -0.72451  -0.71299  -0.69817  -0.67667  -0.66664
 Alpha  occ. eigenvalues --   -0.64864  -0.64249  -0.63817  -0.63462  -0.62426
 Alpha  occ. eigenvalues --   -0.61921  -0.61250  -0.60934  -0.59931  -0.59440
 Alpha  occ. eigenvalues --   -0.58615  -0.58189  -0.57625  -0.57241  -0.56454
 Alpha  occ. eigenvalues --   -0.56092  -0.55562  -0.55482  -0.54586  -0.54434
 Alpha  occ. eigenvalues --   -0.54274  -0.53674  -0.53378  -0.53062  -0.52820
 Alpha  occ. eigenvalues --   -0.52764  -0.52076  -0.50934  -0.50591  -0.50269
 Alpha  occ. eigenvalues --   -0.49548  -0.48392  -0.48111  -0.47954  -0.47181
 Alpha  occ. eigenvalues --   -0.47113  -0.46610  -0.46071  -0.45674  -0.45245
 Alpha  occ. eigenvalues --   -0.44693  -0.44524  -0.43840  -0.43649  -0.43329
 Alpha  occ. eigenvalues --   -0.42874  -0.42727  -0.41956  -0.41613  -0.40074
 Alpha  occ. eigenvalues --   -0.38363  -0.34573
 Alpha virt. eigenvalues --    0.16192   0.20273   0.21128   0.21341   0.22516
 Alpha virt. eigenvalues --    0.23153   0.24024   0.24041   0.24478   0.25299
 Alpha virt. eigenvalues --    0.25577   0.25925   0.26427   0.27097   0.27620

 Mulliken atomic charges:
              1
     1  O   -0.768510
     2  H    0.433699
     3  O   -0.758640
     4  H    0.428732
     5  C   -0.028378
     6  C   -0.144776
     7  H    0.175335
     8  C   -0.187776
     9  H    0.163123
    10  C   -0.163571
    11  H    0.147492
    12  C   -0.143122
    13  H    0.156824
    14  C   -0.298352
    15  H    0.152049
    16  H    0.164400
    17  C   -0.040298
    18  C   -0.326731
    19  H    0.188984
    20  H    0.150570
    21  C   -0.326927
    22  H    0.164730
    23  H    0.164776
    24  C   -0.336672
    25  H    0.158053
    26  H    0.170209
    27  C    0.176565
    28  H    0.180360
    29  C   -0.142578
    30  H    0.154926
    31  C   -0.489623
    32  H    0.160058
    33  H    0.166054
    34  H    0.161745
    35  C    0.072953
    36  C   -0.324215
    37  H    0.161679
    38  H    0.174715
    39  C   -0.286340
    40  H    0.192142
    41  C   -0.480579
    42  H    0.167348
    43  H    0.162801
    44  H    0.171251
    45  C   -0.367179
    46  H    0.194117
    47  H    0.155288
    48  C   -0.340929
    49  H    0.145580
    50  H    0.184038
    51  C   -0.318707
    52  H    0.156473
    53  H    0.162940
    54  C    0.194430
    55  H    0.171244
    56  C   -0.488770
    57  H    0.158378
    58  H    0.158914
    59  H    0.159899
    60  C   -0.320244
    61  H    0.158186
    62  H    0.162482
    63  C   -0.299931
    64  H    0.156562
    65  H    0.149277
    66  C   -0.151520
    67  H    0.155155
    68  C   -0.471930
    69  H    0.152338
    70  H    0.157527
    71  H    0.157119
    72  C   -0.477259
    73  H    0.151989
    74  H    0.157693
    75  H    0.162354
 Sum of Mulliken atomic charges =   0.00000

 Dipole moment (field-independent basis, Debye):
    X=             -0.0967    Y=              1.6595    Z=             -2.0319  Tot=              2.6253
 Quadrupole moment (field-independent basis, Debye-Ang):
   XX=           -193.3416   YY=           -188.9830   ZZ=           -176.7212
   XY=              6.7215   XZ=              3.5623   YZ=             -7.6672

 Normal termination of Gaussian 09 at Wed May 17 12:12:51 2017.
