 Gaussian 09, Revision C.01,
 Gaussian 09:  EM64L-G09RevC.01 23-Sep-2011

 ----------------------------------------------------------------------
 #P HF/6-31G* SCF(Conver=6) NoSymm Test Pop=chelpg IOp(6/33=2) GFInput
 GFPrint
 ----------------------------------------------------------------------

 (Enter /scratch/michal/g09/l101.exe)
 ----------------------------------------------
 MEP - Input generated by R.E.D.-III.x MOLECULE
 ----------------------------------------------
 Charge =  0 Multiplicity = 1

                          Input orientation:
 ---------------------------------------------------------------------
 Center     Atomic      Atomic             Coordinates (Angstroms)
 Number     Number       Type             X           Y           Z
 ---------------------------------------------------------------------
      1          8           0        0.000000    0.000000    0.000000
      2          1           0        0.966555    0.000000    0.000000
      3          8           0        4.357159   -1.305638   -4.939810
      4          1           0        4.084290   -1.113387   -5.847965
      5          6           0       -1.230879    4.105202   -0.752430
      6          6           0       -1.132184    2.572384   -0.516490
      7          1           0       -0.438412    2.448810    0.327322
      8          6           0       -0.527116    1.773318   -1.677291
      9          1           0       -1.187210    1.855112   -2.552951
     10          6           0        0.874367    2.324079   -2.043576
     11          1           0        1.527119    2.079768   -1.188962
     12          6           0       -1.904300    4.542099    0.595089
     13          1           0       -1.118228    4.476063    1.364181
     14          6           0        0.209477    4.602269   -0.992293
     15          1           0        0.793745    4.439371   -0.075168
     16          1           0        0.242027    5.677533   -1.194809
     17          6           0        1.498548    1.593486   -3.283882
     18          6           0       -2.517941    2.175326    0.010353
     19          1           0       -2.483663    1.250758    0.593297
     20          1           0       -3.219929    2.009631   -0.816922
     21          6           0        0.880950    3.866053   -2.169573
     22          1           0        0.377827    4.164900   -3.094993
     23          1           0        1.913279    4.223433   -2.259951
     24          6           0       -2.943779    3.399353    0.867028
     25          1           0       -3.954793    3.732493    0.603662
     26          1           0       -2.972461    3.140093    1.929312
     27          6           0       -0.448934    0.267214   -1.349679
     28          1           0       -1.464391   -0.145045   -1.366086
     29          6           0       -2.534576    5.953240    0.715818
     30          1           0       -3.368635    6.000297    0.000000
     31          6           0       -2.143015    4.464524   -1.948213
     32          1           0       -1.818873    3.989001   -2.877577
     33          1           0       -3.179863    4.160196   -1.776304
     34          1           0       -2.146524    5.545247   -2.124149
     35          6           0        1.282150    0.078108   -3.177693
     36          6           0        3.034103    1.868614   -3.304567
     37          1           0        3.429726    1.685399   -2.295815
     38          1           0        3.209352    2.928587   -3.517451
     39          6           0        0.410741   -0.484275   -2.324010
     40          1           0        0.327041   -1.570100   -2.288205
     41          6           0        0.865004    2.084112   -4.614404
     42          1           0        1.148018    3.118280   -4.832286
     43          1           0        1.189209    1.476684   -5.463027
     44          1           0       -0.227114    2.028148   -4.577248
     45          6           0        2.102756   -0.797714   -4.106671
     46          1           0        1.941540   -1.854267   -3.871237
     47          1           0        1.769769   -0.652342   -5.146742
     48          6           0        3.833891    1.012896   -4.298712
     49          1           0        3.544865    1.252956   -5.332593
     50          1           0        4.902912    1.237923   -4.211884
     51          6           0       -3.130044    6.176322    2.140164
     52          1           0       -3.187185    5.222446    2.674330
     53          1           0       -2.437308    6.799676    2.723668
     54          6           0        3.604309   -0.477576   -4.049921
     55          1           0        3.985860   -0.738353   -3.055009
     56          6           0       -1.555276    7.091873    0.374290
     57          1           0       -0.640463    7.010970    0.974512
     58          1           0       -2.002277    8.066966    0.589925
     59          1           0       -1.264428    7.092982   -0.679333
     60          6           0       -4.535599    6.807161    2.180772
     61          1           0       -5.223209    6.156045    1.624999
     62          1           0       -4.885800    6.799702    3.223169
     63          6           0       -4.633872    8.244641    1.647769
     64          1           0       -4.380360    8.269265    0.578112
     65          1           0       -3.876422    8.858397    2.156454
     66          6           0       -6.009790    8.916551    1.838639
     67          1           0       -6.266745    8.848424    2.907192
     68          6           0       -7.123602    8.218570    1.041175
     69          1           0       -6.899666    8.234412   -0.033581
     70          1           0       -8.084735    8.724787    1.186530
     71          1           0       -7.253488    7.173762    1.340074
     72          6           0       -5.938245   10.406703    1.468964
     73          1           0       -5.682008   10.534626    0.409316
     74          1           0       -6.898833   10.905983    1.639930
     75          1           0       -5.178028   10.929647    2.060549
 ---------------------------------------------------------------------

 SCF Done:  E(RHF) =  -1198.92394277     A.U. after    9 cycles

 Alpha  occ. eigenvalues --  -20.56043 -20.55376 -11.28218 -11.27798 -11.25009
 Alpha  occ. eigenvalues --  -11.24465 -11.23117 -11.23064 -11.23049 -11.22702
 Alpha  occ. eigenvalues --  -11.22533 -11.22439 -11.22436 -11.22254 -11.22193
 Alpha  occ. eigenvalues --  -11.22160 -11.21946 -11.21840 -11.21522 -11.21490
 Alpha  occ. eigenvalues --  -11.21387 -11.21220 -11.21064 -11.21038 -11.21016
 Alpha  occ. eigenvalues --  -11.20983 -11.20925 -11.20748 -11.20694  -1.35425
 Alpha  occ. eigenvalues --   -1.34457  -1.15990  -1.13849  -1.09567  -1.08042
 Alpha  occ. eigenvalues --   -1.06020  -1.05660  -1.03066  -1.01669  -0.99488
 Alpha  occ. eigenvalues --   -0.97947  -0.96250  -0.92872  -0.92402  -0.92329
 Alpha  occ. eigenvalues --   -0.91167  -0.90620  -0.86474  -0.83917  -0.82598
 Alpha  occ. eigenvalues --   -0.82058  -0.78973  -0.78080  -0.77141  -0.75833
 Alpha  occ. eigenvalues --   -0.73730  -0.71829  -0.69774  -0.67628  -0.66581
 Alpha  occ. eigenvalues --   -0.64358  -0.64134  -0.63820  -0.63593  -0.62477
 Alpha  occ. eigenvalues --   -0.61568  -0.61268  -0.60647  -0.59802  -0.59259
 Alpha  occ. eigenvalues --   -0.58799  -0.58545  -0.57905  -0.57114  -0.56523
 Alpha  occ. eigenvalues --   -0.56027  -0.55772  -0.55461  -0.54829  -0.54389
 Alpha  occ. eigenvalues --   -0.54131  -0.53565  -0.53150  -0.52918  -0.52657
 Alpha  occ. eigenvalues --   -0.52264  -0.52066  -0.51326  -0.50875  -0.50351
 Alpha  occ. eigenvalues --   -0.48730  -0.48414  -0.48057  -0.47801  -0.47189
 Alpha  occ. eigenvalues --   -0.46905  -0.46529  -0.46129  -0.45675  -0.45289
 Alpha  occ. eigenvalues --   -0.44938  -0.44540  -0.44161  -0.44080  -0.43243
 Alpha  occ. eigenvalues --   -0.43034  -0.42757  -0.42198  -0.41658  -0.40005
 Alpha  occ. eigenvalues --   -0.38256  -0.34558
 Alpha virt. eigenvalues --    0.16209   0.20603   0.21349   0.21914   0.22632
 Alpha virt. eigenvalues --    0.22841   0.23801   0.24442   0.25089   0.25278
 Alpha virt. eigenvalues --    0.25641   0.26125   0.26471   0.26864   0.27648

 Mulliken atomic charges:
              1
     1  O   -0.768408
     2  H    0.433642
     3  O   -0.758652
     4  H    0.428723
     5  C   -0.030314
     6  C   -0.145050
     7  H    0.175573
     8  C   -0.187813
     9  H    0.162999
    10  C   -0.163632
    11  H    0.147575
    12  C   -0.143712
    13  H    0.154041
    14  C   -0.298017
    15  H    0.152379
    16  H    0.164710
    17  C   -0.040165
    18  C   -0.326842
    19  H    0.188593
    20  H    0.150555
    21  C   -0.326876
    22  H    0.164719
    23  H    0.164640
    24  C   -0.334005
    25  H    0.157983
    26  H    0.168892
    27  C    0.176446
    28  H    0.180210
    29  C   -0.138178
    30  H    0.156264
    31  C   -0.489668
    32  H    0.159796
    33  H    0.165776
    34  H    0.162289
    35  C    0.072952
    36  C   -0.324151
    37  H    0.161628
    38  H    0.174707
    39  C   -0.286284
    40  H    0.192082
    41  C   -0.480743
    42  H    0.167424
    43  H    0.162771
    44  H    0.171158
    45  C   -0.367119
    46  H    0.194071
    47  H    0.155266
    48  C   -0.340897
    49  H    0.145580
    50  H    0.183993
    51  C   -0.319973
    52  H    0.167501
    53  H    0.154282
    54  C    0.194398
    55  H    0.171219
    56  C   -0.488758
    57  H    0.153535
    58  H    0.166298
    59  H    0.157538
    60  C   -0.308004
    61  H    0.154999
    62  H    0.152135
    63  C   -0.301606
    64  H    0.152039
    65  H    0.151277
    66  C   -0.146765
    67  H    0.151499
    68  C   -0.476591
    69  H    0.150965
    70  H    0.158258
    71  H    0.163264
    72  C   -0.472198
    73  H    0.152022
    74  H    0.158093
    75  H    0.157662
 Sum of Mulliken atomic charges =   0.00000

 Dipole moment (field-independent basis, Debye):
    X=             -0.0301    Y=              1.6706    Z=             -1.8028  Tot=              2.4580
 Quadrupole moment (field-independent basis, Debye-Ang):
   XX=           -193.8181   YY=           -189.3266   ZZ=           -175.0699
   XY=              7.7513   XZ=              2.8120   YZ=             -5.2388

 Normal termination of Gaussian 09 at Wed May 17 11:56:02 2017.
