 Gaussian 09, Revision C.01,
 Gaussian 09:  EM64L-G09RevC.01 23-Sep-2011

 ----------------------------------------------------------------------
 #P HF/6-31G* SCF(Conver=6) NoSymm Test Pop=chelpg IOp(6/33=2) GFInput
 GFPrint
 ----------------------------------------------------------------------

 (Enter /scratch/michal/g09/l101.exe)
 ----------------------------------------------
 MEP - Input generated by R.E.D.-III.x MOLECULE
 ----------------------------------------------
 Charge =  0 Multiplicity = 1

                          Input orientation:
 ---------------------------------------------------------------------
 Center     Atomic      Atomic             Coordinates (Angstroms)
 Number     Number       Type             X           Y           Z
 ---------------------------------------------------------------------
      1          8           0        5.510845    3.839262    0.000000
      2          1           0        4.991213    3.485640    0.734230
      3          8           0        0.000000    0.000000    0.000000
      4          1           0       -0.133673   -0.600792   -0.746561
      5          6           0        8.726033    1.008638   -0.722917
      6          6           0        7.706969    2.175624   -0.751487
      7          1           0        7.628820    2.524971    0.287524
      8          6           0        6.286599    1.767899   -1.158181
      9          1           0        6.296835    1.404742   -2.196004
     10          6           0        5.764751    0.641681   -0.225570
     11          1           0        5.628952    1.112391    0.762343
     12          6           0       10.005227    1.796522   -0.300237
     13          1           0        9.805743    2.088591    0.740944
     14          6           0        8.220828   -0.011873    0.311664
     15          1           0        8.223203    0.461616    1.303991
     16          1           0        8.889126   -0.881120    0.377085
     17          6           0        4.345432    0.126044   -0.652929
     18          6           0        8.428968    3.296238   -1.522358
     19          1           0        8.051361    4.284125   -1.244535
     20          1           0        8.281954    3.188991   -2.604762
     21          6           0        6.795569   -0.498772   -0.023305
     22          1           0        6.843647   -1.120117   -0.922955
     23          1           0        6.453569   -1.160838    0.780350
     24          6           0        9.932338    3.106114   -1.147240
     25          1           0       10.545622    3.032670   -2.049827
     26          1           0       10.317094    3.960714   -0.581303
     27          6           0        5.321749    2.972020   -1.143118
     28          1           0        5.561947    3.618498   -1.995167
     29          6           0       11.368119    1.046068   -0.261343
     30          1           0       11.144813    0.000000    0.000000
     31          6           0        8.900451    0.330767   -2.099859
     32          1           0        7.968125   -0.105707   -2.467363
     33          1           0        9.246950    1.031982   -2.864202
     34          1           0        9.632484   -0.481833   -2.037535
     35          6           0        3.429732    1.306919   -1.002490
     36          6           0        3.712775   -0.646929    0.545690
     37          1           0        3.833204   -0.035767    1.451055
     38          1           0        4.275831   -1.570190    0.718915
     39          6           0        3.883192    2.551777   -1.224088
     40          1           0        3.170437    3.345483   -1.446131
     41          6           0        4.425126   -0.809701   -1.890067
     42          1           0        4.910024   -1.758421   -1.641376
     43          1           0        3.431923   -1.048767   -2.278158
     44          1           0        4.985031   -0.341669   -2.705272
     45          6           0        1.944129    1.014367   -1.107109
     46          1           0        1.385382    1.943314   -1.257295
     47          1           0        1.749745    0.383593   -1.989253
     48          6           0        2.222485   -0.985184    0.387441
     49          1           0        2.074337   -1.691853   -0.442433
     50          1           0        1.852857   -1.481793    1.291724
     51          6           0       12.164397    1.025012   -1.589543
     52          1           0       11.480594    0.946462   -2.438845
     53          1           0       12.686445    1.985467   -1.710279
     54          6           0        1.397817    0.274182    0.123245
     55          1           0        1.464513    0.936544    0.995180
     56          6           0       12.241972    1.617788    0.874248
     57          1           0       12.432812    2.686602    0.716500
     58          1           0       13.212538    1.115244    0.938419
     59          1           0       11.749391    1.507860    1.846730
     60          6           0       13.191519   -0.117130   -1.674381
     61          1           0       13.821885   -0.111447   -0.776354
     62          1           0       12.660952   -1.078959   -1.657025
     63          6           0       14.123168   -0.051230   -2.898418
     64          1           0       14.871880   -0.852963   -2.813687
     65          1           0       14.685466    0.892819   -2.856014
     66          6           0       13.459603   -0.160001   -4.287894
     67          1           0       12.717821    0.646218   -4.380244
     68          6           0       12.729759   -1.498093   -4.485898
     69          1           0       13.426584   -2.340140   -4.382407
     70          1           0       12.284514   -1.557059   -5.485637
     71          1           0       11.924297   -1.641425   -3.758388
     72          6           0       14.506828    0.050398   -5.393279
     73          1           0       15.277910   -0.729912   -5.355001
     74          1           0       14.048560    0.015517   -6.388297
     75          1           0       15.008866    1.019119   -5.288846
 ---------------------------------------------------------------------

 SCF Done:  E(RHF) =  -1198.92453087     A.U. after    9 cycles

 Alpha  occ. eigenvalues --  -20.56065 -20.55392 -11.28240 -11.27819 -11.25060
 Alpha  occ. eigenvalues --  -11.24501 -11.23234 -11.23097 -11.23075 -11.22728
 Alpha  occ. eigenvalues --  -11.22463 -11.22403 -11.22335 -11.22289 -11.22277
 Alpha  occ. eigenvalues --  -11.22253 -11.22070 -11.21657 -11.21652 -11.21518
 Alpha  occ. eigenvalues --  -11.21461 -11.21166 -11.21062 -11.21034 -11.21027
 Alpha  occ. eigenvalues --  -11.21021 -11.20984 -11.20843 -11.20824  -1.35448
 Alpha  occ. eigenvalues --   -1.34474  -1.16045  -1.13930  -1.09606  -1.08046
 Alpha  occ. eigenvalues --   -1.06066  -1.05682  -1.03080  -1.01696  -0.99642
 Alpha  occ. eigenvalues --   -0.98010  -0.96209  -0.92732  -0.92411  -0.92107
 Alpha  occ. eigenvalues --   -0.91340  -0.90692  -0.86512  -0.83714  -0.82750
 Alpha  occ. eigenvalues --   -0.82651  -0.79842  -0.78255  -0.77512  -0.74926
 Alpha  occ. eigenvalues --   -0.72692  -0.71707  -0.69814  -0.67626  -0.66494
 Alpha  occ. eigenvalues --   -0.64484  -0.64100  -0.63872  -0.63395  -0.62632
 Alpha  occ. eigenvalues --   -0.62139  -0.61606  -0.61102  -0.60123  -0.59152
 Alpha  occ. eigenvalues --   -0.58991  -0.58333  -0.57706  -0.56994  -0.56343
 Alpha  occ. eigenvalues --   -0.56197  -0.55983  -0.55260  -0.54918  -0.54410
 Alpha  occ. eigenvalues --   -0.53823  -0.53591  -0.53478  -0.53081  -0.52873
 Alpha  occ. eigenvalues --   -0.52499  -0.52058  -0.51156  -0.51023  -0.49487
 Alpha  occ. eigenvalues --   -0.48863  -0.48402  -0.48234  -0.48109  -0.47318
 Alpha  occ. eigenvalues --   -0.46935  -0.46506  -0.46198  -0.45762  -0.45378
 Alpha  occ. eigenvalues --   -0.45157  -0.44720  -0.44579  -0.43889  -0.43296
 Alpha  occ. eigenvalues --   -0.42811  -0.42196  -0.42031  -0.41791  -0.40078
 Alpha  occ. eigenvalues --   -0.38487  -0.34590
 Alpha virt. eigenvalues --    0.16171   0.20089   0.21187   0.21352   0.22794
 Alpha virt. eigenvalues --    0.23033   0.23426   0.24174   0.24445   0.25205
 Alpha virt. eigenvalues --    0.25596   0.26262   0.26467   0.27136   0.27683

 Mulliken atomic charges:
              1
     1  O   -0.768552
     2  H    0.433698
     3  O   -0.758608
     4  H    0.428754
     5  C   -0.032186
     6  C   -0.144792
     7  H    0.175295
     8  C   -0.187607
     9  H    0.163547
    10  C   -0.163995
    11  H    0.147889
    12  C   -0.149321
    13  H    0.157894
    14  C   -0.295875
    15  H    0.153034
    16  H    0.158280
    17  C   -0.040211
    18  C   -0.328112
    19  H    0.188706
    20  H    0.150466
    21  C   -0.327542
    22  H    0.165429
    23  H    0.165556
    24  C   -0.329489
    25  H    0.164803
    26  H    0.166122
    27  C    0.177596
    28  H    0.180222
    29  C   -0.143342
    30  H    0.156140
    31  C   -0.489815
    32  H    0.161158
    33  H    0.165545
    34  H    0.161919
    35  C    0.072944
    36  C   -0.324482
    37  H    0.161724
    38  H    0.174842
    39  C   -0.286993
    40  H    0.192225
    41  C   -0.480733
    42  H    0.167166
    43  H    0.162962
    44  H    0.171531
    45  C   -0.367273
    46  H    0.194179
    47  H    0.155296
    48  C   -0.340891
    49  H    0.145607
    50  H    0.184072
    51  C   -0.318992
    52  H    0.168387
    53  H    0.151947
    54  C    0.194456
    55  H    0.171237
    56  C   -0.482362
    57  H    0.156043
    58  H    0.160288
    59  H    0.157826
    60  C   -0.313597
    61  H    0.158286
    62  H    0.152271
    63  C   -0.297369
    64  H    0.150412
    65  H    0.152351
    66  C   -0.152325
    67  H    0.155735
    68  C   -0.476960
    69  H    0.152074
    70  H    0.157938
    71  H    0.161162
    72  C   -0.471710
    73  H    0.152228
    74  H    0.157765
    75  H    0.158131
 Sum of Mulliken atomic charges =   0.00000

 Dipole moment (field-independent basis, Debye):
    X=              0.2244    Y=             -2.3709    Z=             -0.8667  Tot=              2.5343
 Quadrupole moment (field-independent basis, Debye-Ang):
   XX=           -197.4061   YY=           -194.6909   ZZ=           -183.3097
   XY=            -11.0902   XZ=              2.1641   YZ=              0.7326

 Normal termination of Gaussian 09 at Wed May 17 12:31:54 2017.
