 Gaussian 09, Revision C.01,
 Gaussian 09:  EM64L-G09RevC.01 23-Sep-2011

 ----------------------------------------------------------------------
 #P HF/6-31G* SCF(Conver=6) NoSymm Test Pop=chelpg IOp(6/33=2) GFInput
 GFPrint
 ----------------------------------------------------------------------

 (Enter /scratch/michal/g09/l101.exe)
 ----------------------------------------------
 MEP - Input generated by R.E.D.-III.x MOLECULE
 ----------------------------------------------
 Charge =  0 Multiplicity = 1

                          Input orientation:
 ---------------------------------------------------------------------
 Center     Atomic      Atomic             Coordinates (Angstroms)
 Number     Number       Type             X           Y           Z
 ---------------------------------------------------------------------
      1          8           0        0.000000    0.000000    0.000000
      2          1           0        0.966539    0.000000    0.000000
      3          8           0        4.361525   -1.298817   -4.939813
      4          1           0        4.086973   -1.109272   -5.848032
      5          6           0       -1.241483    4.101252   -0.755972
      6          6           0       -1.137589    2.568490   -0.519267
      7          1           0       -0.442248    2.448718    0.323791
      8          6           0       -0.530658    1.770007   -1.679482
      9          1           0       -1.190852    1.849392   -2.555432
     10          6           0        0.869518    2.323364   -2.046021
     11          1           0        1.522990    2.080589   -1.191514
     12          6           0       -1.918282    4.535412    0.591511
     13          1           0       -1.132690    4.467872    1.360839
     14          6           0        0.198716    4.600110   -0.995169
     15          1           0        0.782590    4.438521   -0.077597
     16          1           0        0.231163    5.675015   -1.198737
     17          6           0        1.494936    1.593462   -3.286037
     18          6           0       -2.520450    2.165389    0.009773
     19          1           0       -2.479601    1.244047    0.597353
     20          1           0       -3.221659    1.990716   -0.816369
     21          6           0        0.872205    3.865051   -2.172167
     22          1           0        0.368506    4.162357   -3.097771
     23          1           0        1.903573    4.225272   -2.262315
     24          6           0       -2.955168    3.390614    0.859828
     25          1           0       -3.964825    3.719555    0.585440
     26          1           0       -2.991693    3.138451    1.923657
     27          6           0       -0.448887    0.264393   -1.350255
     28          1           0       -1.463256   -0.150518   -1.366881
     29          6           0       -2.546159    5.947973    0.718559
     30          1           0       -3.377792    6.012569    0.000000
     31          6           0       -2.153503    4.459631   -1.951630
     32          1           0       -1.826257    3.988242   -2.881953
     33          1           0       -3.189228    4.150482   -1.781427
     34          1           0       -2.161403    5.541103   -2.123828
     35          6           0        1.283264    0.077575   -3.177528
     36          6           0        3.029523    1.873715   -3.308623
     37          1           0        3.426944    1.693548   -2.300022
     38          1           0        3.200915    2.933934   -3.523460
     39          6           0        0.413322   -0.486033   -2.323161
     40          1           0        0.332530   -1.572039   -2.285875
     41          6           0        0.858984    2.079649   -4.616978
     42          1           0        1.137930    3.114567   -4.836626
     43          1           0        1.185528    1.471929   -5.464492
     44          1           0       -0.232892    2.019470   -4.579697
     45          6           0        2.106192   -0.797028   -4.105607
     46          1           0        1.948652   -1.853727   -3.868361
     47          1           0        1.771906   -0.654335   -5.145678
     48          6           0        3.831168    1.019074   -4.302139
     49          1           0        3.540439    1.256431   -5.336165
     50          1           0        4.899528    1.247719   -4.216669
     51          6           0       -3.151766    6.137397    2.131949
     52          1           0       -3.787143    5.276271    2.369878
     53          1           0       -2.332359    6.122152    2.865284
     54          6           0        3.606716   -0.471782   -4.050653
     55          1           0        3.990024   -0.729578   -3.055638
     56          6           0       -1.558130    7.084635    0.402526
     57          1           0       -0.670641    7.022793    1.045175
     58          1           0       -2.016999    8.064513    0.564290
     59          1           0       -1.219611    7.060271   -0.635566
     60          6           0       -3.999422    7.407843    2.316573
     61          1           0       -3.370529    8.303463    2.255575
     62          1           0       -4.707920    7.481415    1.479137
     63          6           0       -4.809147    7.438052    3.626207
     64          1           0       -5.493359    6.577221    3.633616
     65          1           0       -5.448428    8.333490    3.624055
     66          6           0       -4.000470    7.427075    4.940998
     67          1           0       -3.373999    6.523665    4.951581
     68          6           0       -4.949879    7.342775    6.146919
     69          1           0       -5.602271    8.224338    6.193492
     70          1           0       -4.393042    7.291863    7.089578
     71          1           0       -5.592277    6.456579    6.088490
     72          6           0       -3.072936    8.645789    5.069722
     73          1           0       -3.650183    9.579214    5.040339
     74          1           0       -2.527162    8.623297    6.019880
     75          1           0       -2.331139    8.687513    4.265538
 ---------------------------------------------------------------------

 SCF Done:  E(RHF) =  -1198.92722226     A.U. after    9 cycles

 Alpha  occ. eigenvalues --  -20.56051 -20.55383 -11.28226 -11.27806 -11.25016
 Alpha  occ. eigenvalues --  -11.24476 -11.23122 -11.23073 -11.23059 -11.22710
 Alpha  occ. eigenvalues --  -11.22574 -11.22446 -11.22281 -11.22263 -11.22238
 Alpha  occ. eigenvalues --  -11.22202 -11.21962 -11.21859 -11.21518 -11.21442
 Alpha  occ. eigenvalues --  -11.21386 -11.21195 -11.21064 -11.21044 -11.20937
 Alpha  occ. eigenvalues --  -11.20932 -11.20914 -11.20787 -11.20674  -1.35432
 Alpha  occ. eigenvalues --   -1.34466  -1.16002  -1.13867  -1.09621  -1.08051
 Alpha  occ. eigenvalues --   -1.06034  -1.05710  -1.03079  -1.01662  -0.99476
 Alpha  occ. eigenvalues --   -0.97974  -0.96260  -0.92898  -0.92382  -0.92289
 Alpha  occ. eigenvalues --   -0.90922  -0.90629  -0.86485  -0.84023  -0.82608
 Alpha  occ. eigenvalues --   -0.82495  -0.79251  -0.78303  -0.77167  -0.74669
 Alpha  occ. eigenvalues --   -0.73642  -0.71813  -0.69775  -0.67619  -0.66583
 Alpha  occ. eigenvalues --   -0.64809  -0.64260  -0.63922  -0.63499  -0.62336
 Alpha  occ. eigenvalues --   -0.61534  -0.61260  -0.61027  -0.60390  -0.59247
 Alpha  occ. eigenvalues --   -0.58618  -0.58185  -0.57630  -0.56804  -0.56577
 Alpha  occ. eigenvalues --   -0.56213  -0.55755  -0.55417  -0.54929  -0.54389
 Alpha  occ. eigenvalues --   -0.54065  -0.53910  -0.53357  -0.52980  -0.52890
 Alpha  occ. eigenvalues --   -0.52486  -0.52038  -0.50973  -0.50179  -0.49717
 Alpha  occ. eigenvalues --   -0.49028  -0.48352  -0.48072  -0.47886  -0.47341
 Alpha  occ. eigenvalues --   -0.46959  -0.46780  -0.46045  -0.45614  -0.45448
 Alpha  occ. eigenvalues --   -0.45122  -0.44544  -0.44234  -0.43448  -0.43331
 Alpha  occ. eigenvalues --   -0.43126  -0.42808  -0.42418  -0.41614  -0.40039
 Alpha  occ. eigenvalues --   -0.38295  -0.34568
 Alpha virt. eigenvalues --    0.16197   0.20571   0.21347   0.21635   0.22515
 Alpha virt. eigenvalues --    0.22921   0.24118   0.24500   0.24937   0.25264
 Alpha virt. eigenvalues --    0.25968   0.26222   0.26437   0.27142   0.27291

 Mulliken atomic charges:
              1
     1  O   -0.768468
     2  H    0.433676
     3  O   -0.758640
     4  H    0.428732
     5  C   -0.029899
     6  C   -0.145214
     7  H    0.175554
     8  C   -0.187661
     9  H    0.163019
    10  C   -0.163602
    11  H    0.147632
    12  C   -0.135968
    13  H    0.153235
    14  C   -0.298249
    15  H    0.152531
    16  H    0.164070
    17  C   -0.040229
    18  C   -0.326428
    19  H    0.188718
    20  H    0.150425
    21  C   -0.326790
    22  H    0.164720
    23  H    0.164700
    24  C   -0.335879
    25  H    0.157389
    26  H    0.169640
    27  C    0.176520
    28  H    0.180262
    29  C   -0.148923
    30  H    0.151707
    31  C   -0.488914
    32  H    0.159676
    33  H    0.165910
    34  H    0.162197
    35  C    0.073012
    36  C   -0.324174
    37  H    0.161656
    38  H    0.174699
    39  C   -0.286494
    40  H    0.192108
    41  C   -0.480675
    42  H    0.167374
    43  H    0.162786
    44  H    0.171211
    45  C   -0.367160
    46  H    0.194095
    47  H    0.155288
    48  C   -0.340915
    49  H    0.145595
    50  H    0.184012
    51  C   -0.311605
    52  H    0.165729
    53  H    0.151242
    54  C    0.194412
    55  H    0.171221
    56  C   -0.485528
    57  H    0.152085
    58  H    0.164346
    59  H    0.161200
    60  C   -0.312950
    61  H    0.158414
    62  H    0.153917
    63  C   -0.298392
    64  H    0.151621
    65  H    0.150287
    66  C   -0.151989
    67  H    0.157790
    68  C   -0.471886
    69  H    0.151895
    70  H    0.157956
    71  H    0.157889
    72  C   -0.476703
    73  H    0.151643
    74  H    0.158168
    75  H    0.161371
 Sum of Mulliken atomic charges =   0.00000

 Dipole moment (field-independent basis, Debye):
    X=             -0.0023    Y=              1.6365    Z=             -1.9879  Tot=              2.5748
 Quadrupole moment (field-independent basis, Debye-Ang):
   XX=           -193.8259   YY=           -189.1574   ZZ=           -176.6027
   XY=              7.8550   XZ=              4.2668   YZ=             -7.1367

 Normal termination of Gaussian 09 at Wed May 17 13:53:01 2017.
