 Gaussian 09, Revision C.01,
 Gaussian 09:  EM64L-G09RevC.01 23-Sep-2011

 ----------------------------------------------------------------------
 #P HF/6-31G* SCF(Conver=6) NoSymm Test Pop=chelpg IOp(6/33=2) GFInput
 GFPrint
 ----------------------------------------------------------------------

 (Enter /scratch/michal/g09/l101.exe)
 ----------------------------------------------
 MEP - Input generated by R.E.D.-III.x MOLECULE
 ----------------------------------------------
 Charge =  0 Multiplicity = 1

                          Input orientation:
 ---------------------------------------------------------------------
 Center     Atomic      Atomic             Coordinates (Angstroms)
 Number     Number       Type             X           Y           Z
 ---------------------------------------------------------------------
      1          8           0        0.000000    0.000000    0.000000
      2          1           0        0.966541    0.000000    0.000000
      3          8           0        4.355302   -1.307998   -4.943128
      4          1           0        4.080603   -1.118100   -5.851232
      5          6           0       -1.234086    4.102265   -0.756196
      6          6           0       -1.135164    2.569419   -0.520220
      7          1           0       -0.441779    2.446451    0.324003
      8          6           0       -0.529175    1.769845   -1.680214
      9          1           0       -1.189366    1.849373   -2.556066
     10          6           0        0.871701    2.321284   -2.047657
     11          1           0        1.525366    2.077500   -1.193592
     12          6           0       -1.907200    4.538857    0.591552
     13          1           0       -1.120660    4.473171    1.360156
     14          6           0        0.206459    4.598785   -0.996025
     15          1           0        0.790713    4.434794   -0.079072
     16          1           0        0.239739    5.674128   -1.197742
     17          6           0        1.494940    1.590097   -3.288130
     18          6           0       -2.520986    2.172221    0.006114
     19          1           0       -2.487174    1.247048    0.588147
     20          1           0       -3.222966    2.007762   -0.821429
     21          6           0        0.877545    3.863149   -2.173947
     22          1           0        0.373723    4.161809   -3.099062
     23          1           0        1.909659    4.220992   -2.264855
     24          6           0       -2.946132    3.395522    0.864130
     25          1           0       -3.957534    3.728591    0.602447
     26          1           0       -2.973283    3.135434    1.926245
     27          6           0       -0.449134    0.264308   -1.350144
     28          1           0       -1.464105   -0.149157   -1.365969
     29          6           0       -2.538868    5.949508    0.713615
     30          1           0       -3.374814    5.995174    0.000000
     31          6           0       -2.146184    4.461466   -1.952055
     32          1           0       -1.823750    3.982869   -2.880406
     33          1           0       -3.183677    4.160136   -1.778780
     34          1           0       -2.147182    5.541839   -2.130463
     35          6           0        1.280879    0.074540   -3.179096
     36          6           0        3.030044    1.867479   -3.311994
     37          1           0        3.427740    1.687013   -2.303559
     38          1           0        3.203250    2.927271   -3.527393
     39          6           0        0.411189   -0.487621   -2.323505
     40          1           0        0.329089   -1.573510   -2.285777
     41          6           0        0.858694    2.077738   -4.618356
     42          1           0        1.139163    3.112315   -4.837567
     43          1           0        1.183576    1.469885   -5.466396
     44          1           0       -0.233249    2.019405   -4.580124
     45          6           0        2.101320   -0.801627   -4.107916
     46          1           0        1.941696   -1.858035   -3.870785
     47          1           0        1.766741   -0.657956   -5.147751
     48          6           0        3.829572    1.010954   -4.305661
     49          1           0        3.538824    1.248495   -5.339638
     50          1           0        4.898390    1.237689   -4.220781
     51          6           0       -3.131084    6.170167    2.140341
     52          1           0       -3.168197    5.217334    2.678126
     53          1           0       -2.444443    6.802109    2.719701
     54          6           0        3.602501   -0.479399   -4.053714
     55          1           0        3.985811   -0.737735   -3.058840
     56          6           0       -1.562732    7.088627    0.366168
     57          1           0       -0.649451    7.017763    0.970050
     58          1           0       -2.014246    8.064139    0.570370
     59          1           0       -1.268391    7.081828   -0.686345
     60          6           0       -4.554314    6.764243    2.181207
     61          1           0       -5.214752    6.105296    1.600649
     62          1           0       -4.922979    6.713253    3.213801
     63          6           0       -4.728579    8.199895    1.651329
     64          1           0       -5.804962    8.424074    1.612410
     65          1           0       -4.380068    8.246481    0.610670
     66          6           0       -4.038990    9.322935    2.455793
     67          1           0       -2.967352    9.089436    2.530834
     68          6           0       -4.590929    9.445051    3.885490
     69          1           0       -5.667040    9.661998    3.869846
     70          1           0       -4.096342   10.259610    4.426771
     71          1           0       -4.444006    8.528723    4.465958
     72          6           0       -4.168745   10.663484    1.714554
     73          1           0       -5.222887   10.950194    1.607540
     74          1           0       -3.659038   11.469120    2.255281
     75          1           0       -3.736345   10.608497    0.708757
 ---------------------------------------------------------------------

 SCF Done:  E(RHF) =  -1198.92192505     A.U. after    9 cycles

 Alpha  occ. eigenvalues --  -20.56051 -20.55387 -11.28226 -11.27809 -11.25019
 Alpha  occ. eigenvalues --  -11.24476 -11.23129 -11.23074 -11.23058 -11.22711
 Alpha  occ. eigenvalues --  -11.22551 -11.22446 -11.22368 -11.22264 -11.22206
 Alpha  occ. eigenvalues --  -11.22192 -11.21962 -11.21865 -11.21535 -11.21511
 Alpha  occ. eigenvalues --  -11.21402 -11.21188 -11.21074 -11.21050 -11.21029
 Alpha  occ. eigenvalues --  -11.20963 -11.20942 -11.20843 -11.20705  -1.35432
 Alpha  occ. eigenvalues --   -1.34469  -1.16002  -1.13863  -1.09583  -1.08002
 Alpha  occ. eigenvalues --   -1.06026  -1.05562  -1.03081  -1.01630  -0.99497
 Alpha  occ. eigenvalues --   -0.97961  -0.96270  -0.92899  -0.92441  -0.92316
 Alpha  occ. eigenvalues --   -0.91213  -0.90650  -0.86483  -0.83949  -0.82611
 Alpha  occ. eigenvalues --   -0.82249  -0.79408  -0.78434  -0.77220  -0.74832
 Alpha  occ. eigenvalues --   -0.73401  -0.71859  -0.69786  -0.67642  -0.66611
 Alpha  occ. eigenvalues --   -0.64379  -0.64196  -0.63958  -0.63463  -0.62384
 Alpha  occ. eigenvalues --   -0.61530  -0.61251  -0.60919  -0.60514  -0.59372
 Alpha  occ. eigenvalues --   -0.58645  -0.58426  -0.57428  -0.56763  -0.56401
 Alpha  occ. eigenvalues --   -0.56218  -0.55912  -0.55426  -0.54893  -0.54326
 Alpha  occ. eigenvalues --   -0.54048  -0.53996  -0.53576  -0.52990  -0.52877
 Alpha  occ. eigenvalues --   -0.52488  -0.52007  -0.50908  -0.50593  -0.50014
 Alpha  occ. eigenvalues --   -0.49193  -0.48261  -0.48061  -0.47944  -0.47261
 Alpha  occ. eigenvalues --   -0.46887  -0.46848  -0.46280  -0.45643  -0.45379
 Alpha  occ. eigenvalues --   -0.44995  -0.44526  -0.43844  -0.43597  -0.43057
 Alpha  occ. eigenvalues --   -0.42985  -0.42816  -0.42493  -0.41637  -0.40028
 Alpha  occ. eigenvalues --   -0.38282  -0.34568
 Alpha virt. eigenvalues --    0.16196   0.20541   0.21319   0.21384   0.22525
 Alpha virt. eigenvalues --    0.23006   0.23515   0.24392   0.24932   0.25317
 Alpha virt. eigenvalues --    0.25858   0.26067   0.26381   0.26985   0.27240

 Mulliken atomic charges:
              1
     1  O   -0.768437
     2  H    0.433684
     3  O   -0.758638
     4  H    0.428731
     5  C   -0.030409
     6  C   -0.145196
     7  H    0.175696
     8  C   -0.187827
     9  H    0.163002
    10  C   -0.163579
    11  H    0.147570
    12  C   -0.144025
    13  H    0.154050
    14  C   -0.298141
    15  H    0.152400
    16  H    0.164478
    17  C   -0.040268
    18  C   -0.326766
    19  H    0.188569
    20  H    0.150606
    21  C   -0.326819
    22  H    0.164715
    23  H    0.164686
    24  C   -0.334004
    25  H    0.158394
    26  H    0.168957
    27  C    0.176506
    28  H    0.180246
    29  C   -0.137075
    30  H    0.156824
    31  C   -0.489605
    32  H    0.159856
    33  H    0.165917
    34  H    0.162120
    35  C    0.073009
    36  C   -0.324169
    37  H    0.161656
    38  H    0.174695
    39  C   -0.286409
    40  H    0.192108
    41  C   -0.480609
    42  H    0.167398
    43  H    0.162786
    44  H    0.171170
    45  C   -0.367165
    46  H    0.194101
    47  H    0.155276
    48  C   -0.340899
    49  H    0.145579
    50  H    0.184011
    51  C   -0.324632
    52  H    0.167686
    53  H    0.158064
    54  C    0.194407
    55  H    0.171232
    56  C   -0.490697
    57  H    0.153812
    58  H    0.166221
    59  H    0.158441
    60  C   -0.312583
    61  H    0.155320
    62  H    0.157023
    63  C   -0.305145
    64  H    0.151243
    65  H    0.155890
    66  C   -0.152652
    67  H    0.155852
    68  C   -0.475703
    69  H    0.151897
    70  H    0.158103
    71  H    0.162262
    72  C   -0.472652
    73  H    0.152805
    74  H    0.158137
    75  H    0.156914
 Sum of Mulliken atomic charges =   0.00000

 Dipole moment (field-independent basis, Debye):
    X=              0.0241    Y=              1.6122    Z=             -1.8958  Tot=              2.4887
 Quadrupole moment (field-independent basis, Debye-Ang):
   XX=           -193.7846   YY=           -190.1055   ZZ=           -175.7706
   XY=              8.4454   XZ=              3.6551   YZ=             -6.1079

 Normal termination of Gaussian 09 at Wed May 17 12:01:25 2017.
