 Gaussian 09, Revision C.01,
 Gaussian 09:  EM64L-G09RevC.01 23-Sep-2011

 ----------------------------------------------------------------------
 #P HF/6-31G* SCF(Conver=6) NoSymm Test Pop=chelpg IOp(6/33=2) GFInput
 GFPrint
 ----------------------------------------------------------------------

 (Enter /scratch/michal/g09/l101.exe)
 ----------------------------------------------
 MEP - Input generated by R.E.D.-III.x MOLECULE
 ----------------------------------------------
 Charge =  0 Multiplicity = 1

                          Input orientation:
 ---------------------------------------------------------------------
 Center     Atomic      Atomic             Coordinates (Angstroms)
 Number     Number       Type             X           Y           Z
 ---------------------------------------------------------------------
      1          8           0        6.092172    2.825074    0.000000
      2          1           0        5.520339    2.562940    0.733794
      3          8           0        0.000000    0.000000    0.000000
      4          1           0       -0.236387   -0.567811   -0.746916
      5          6           0        8.784209   -0.511616   -0.735287
      6          6           0        7.967747    0.812611   -0.775026
      7          1           0        7.959338    1.185724    0.258453
      8          6           0        6.494402    0.655061   -1.169060
      9          1           0        6.432679    0.300023   -2.207744
     10          6           0        5.788468   -0.365437   -0.239108
     11          1           0        5.740775    0.114316    0.752728
     12          6           0       10.178117    0.076868   -0.321370
     13          1           0       10.027756    0.426307    0.709444
     14          6           0        8.095010   -1.424304    0.297252
     15          1           0        8.164102   -0.956183    1.289077
     16          1           0        8.597188   -2.396139    0.372547
     17          6           0        4.300001   -0.626145   -0.661808
     18          6           0        8.850934    1.785878   -1.574744
     19          1           0        8.637072    2.828104   -1.321766
     20          1           0        8.680546    1.674316   -2.653264
     21          6           0        6.612143   -1.663173   -0.054002
     22          1           0        6.565408   -2.267180   -0.965803
     23          1           0        6.160634   -2.274552    0.735804
     24          6           0       10.300241    1.366761   -1.194638
     25          1           0       10.899417    1.182670   -2.092207
     26          1           0       10.818776    2.153988   -0.636569
     27          6           0        5.753957    2.009065   -1.146433
     28          1           0        6.100379    2.608179   -1.996409
     29          6           0       11.496527   -0.747735   -0.271524
     30          1           0       12.257208    0.000000    0.000000
     31          6           0        8.829593   -1.207753   -2.115376
     32          1           0        7.832470   -1.330822   -2.546093
     33          1           0        9.425370   -0.648087   -2.840924
     34          1           0        9.266633   -2.207130   -2.031931
     35          6           0        3.602205    0.696265   -1.006997
     36          6           0        3.546358   -1.278554    0.538467
     37          1           0        3.772478   -0.697321    1.443291
     38          1           0        3.942164   -2.285136    0.710706
     39          6           0        4.264147    1.844488   -1.225702
     40          1           0        3.699384    2.750436   -1.443921
     41          6           0        4.212543   -1.560839   -1.899077
     42          1           0        4.531567   -2.577929   -1.652523
     43          1           0        3.190889   -1.628137   -2.281123
     44          1           0        4.838937   -1.194202   -2.717832
     45          6           0        2.088250    0.665539   -1.109382
     46          1           0        1.698372    1.677410   -1.257073
     47          1           0        1.786376    0.079510   -1.992144
     48          6           0        2.019794   -1.354215    0.383122
     49          1           0        1.750107   -2.024102   -0.446662
     50          1           0        1.571551   -1.780074    1.287943
     51          6           0       11.533946   -1.838891    0.826788
     52          1           0       10.789664   -2.609644    0.589004
     53          1           0       12.509577   -2.341671    0.757422
     54          6           0        1.424373    0.028897    0.121122
     55          1           0        1.605480    0.668789    0.993577
     56          6           0       11.983540   -1.365823   -1.597993
     57          1           0       11.423185   -2.267095   -1.863557
     58          1           0       13.035839   -1.656889   -1.502163
     59          1           0       11.915173   -0.669705   -2.438991
     60          6           0       11.336815   -1.393373    2.288634
     61          1           0       10.351138   -0.928017    2.417113
     62          1           0       11.320702   -2.299611    2.906797
     63          6           0       12.417235   -0.436238    2.815125
     64          1           0       12.428940    0.471229    2.197436
     65          1           0       13.407546   -0.901460    2.689884
     66          6           0       12.252057   -0.007664    4.288534
     67          1           0       11.234236    0.396156    4.404603
     68          6           0       13.242485    1.114930    4.637180
     69          1           0       14.278547    0.768122    4.531615
     70          1           0       13.110982    1.455679    5.670527
     71          1           0       13.112960    1.981543    3.978831
     72          6           0       12.407854   -1.181836    5.268781
     73          1           0       13.403880   -1.634334    5.176406
     74          1           0       12.292643   -0.843693    6.304897
     75          1           0       11.666328   -1.968005    5.095600
 ---------------------------------------------------------------------

 SCF Done:  E(RHF) =  -1198.92052350     A.U. after    9 cycles

 Alpha  occ. eigenvalues --  -20.56060 -20.55396 -11.28236 -11.27817 -11.25040
 Alpha  occ. eigenvalues --  -11.24492 -11.23174 -11.23090 -11.23069 -11.22722
 Alpha  occ. eigenvalues --  -11.22581 -11.22458 -11.22445 -11.22308 -11.22272
 Alpha  occ. eigenvalues --  -11.22212 -11.22002 -11.21821 -11.21611 -11.21470
 Alpha  occ. eigenvalues --  -11.21412 -11.21362 -11.21057 -11.21022 -11.20978
 Alpha  occ. eigenvalues --  -11.20970 -11.20795 -11.20758 -11.20750  -1.35441
 Alpha  occ. eigenvalues --   -1.34479  -1.16007  -1.13840  -1.09541  -1.08008
 Alpha  occ. eigenvalues --   -1.06052  -1.05721  -1.03107  -1.01669  -0.99599
 Alpha  occ. eigenvalues --   -0.97952  -0.96330  -0.92643  -0.92393  -0.92317
 Alpha  occ. eigenvalues --   -0.91534  -0.90493  -0.86496  -0.83955  -0.82828
 Alpha  occ. eigenvalues --   -0.82410  -0.78891  -0.78478  -0.76973  -0.75922
 Alpha  occ. eigenvalues --   -0.73237  -0.71359  -0.69713  -0.67589  -0.66311
 Alpha  occ. eigenvalues --   -0.64737  -0.64110  -0.63868  -0.63249  -0.62746
 Alpha  occ. eigenvalues --   -0.61758  -0.61142  -0.60625  -0.60318  -0.59340
 Alpha  occ. eigenvalues --   -0.59024  -0.58664  -0.57719  -0.57442  -0.56358
 Alpha  occ. eigenvalues --   -0.55946  -0.55680  -0.55146  -0.54728  -0.54480
 Alpha  occ. eigenvalues --   -0.54115  -0.53758  -0.53407  -0.52939  -0.52782
 Alpha  occ. eigenvalues --   -0.52699  -0.52025  -0.51172  -0.50581  -0.49911
 Alpha  occ. eigenvalues --   -0.48740  -0.48403  -0.48092  -0.47775  -0.47479
 Alpha  occ. eigenvalues --   -0.47055  -0.46867  -0.46340  -0.45722  -0.45300
 Alpha  occ. eigenvalues --   -0.45206  -0.44733  -0.44287  -0.43458  -0.43271
 Alpha  occ. eigenvalues --   -0.42865  -0.42481  -0.42117  -0.41583  -0.39988
 Alpha  occ. eigenvalues --   -0.38309  -0.34583
 Alpha virt. eigenvalues --    0.16181   0.20255   0.21096   0.21479   0.22188
 Alpha virt. eigenvalues --    0.22998   0.23803   0.24484   0.24663   0.25097
 Alpha virt. eigenvalues --    0.25241   0.26070   0.26680   0.26997   0.27844

 Mulliken atomic charges:
              1
     1  O   -0.768571
     2  H    0.433662
     3  O   -0.758625
     4  H    0.428748
     5  C   -0.022807
     6  C   -0.148607
     7  H    0.176300
     8  C   -0.188103
     9  H    0.163159
    10  C   -0.163522
    11  H    0.147430
    12  C   -0.155244
    13  H    0.160129
    14  C   -0.301827
    15  H    0.153954
    16  H    0.162146
    17  C   -0.040466
    18  C   -0.326236
    19  H    0.187781
    20  H    0.151059
    21  C   -0.326882
    22  H    0.166180
    23  H    0.164734
    24  C   -0.328125
    25  H    0.158613
    26  H    0.164766
    27  C    0.177332
    28  H    0.180461
    29  C   -0.147838
    30  H    0.157969
    31  C   -0.486497
    32  H    0.158879
    33  H    0.167074
    34  H    0.160500
    35  C    0.073180
    36  C   -0.324197
    37  H    0.161580
    38  H    0.174717
    39  C   -0.286967
    40  H    0.192192
    41  C   -0.480417
    42  H    0.167481
    43  H    0.162763
    44  H    0.171260
    45  C   -0.367227
    46  H    0.194128
    47  H    0.155368
    48  C   -0.340902
    49  H    0.145644
    50  H    0.184042
    51  C   -0.302922
    52  H    0.154620
    53  H    0.152299
    54  C    0.194425
    55  H    0.171199
    56  C   -0.481330
    57  H    0.155408
    58  H    0.157886
    59  H    0.160497
    60  C   -0.317087
    61  H    0.156354
    62  H    0.158603
    63  C   -0.300526
    64  H    0.157223
    65  H    0.146683
    66  C   -0.146344
    67  H    0.150882
    68  C   -0.472508
    69  H    0.152552
    70  H    0.158025
    71  H    0.158431
    72  C   -0.476198
    73  H    0.151835
    74  H    0.158263
    75  H    0.161560
 Sum of Mulliken atomic charges =   0.00000

 Dipole moment (field-independent basis, Debye):
    X=             -0.1485    Y=             -2.3783    Z=             -0.8780  Tot=              2.5395
 Quadrupole moment (field-independent basis, Debye-Ang):
   XX=           -199.9171   YY=           -190.8850   ZZ=           -183.4471
   XY=            -10.4159   XZ=              1.3688   YZ=              0.9800

 Normal termination of Gaussian 09 at Wed May 17 13:11:43 2017.
