 Gaussian 09, Revision C.01,
 Gaussian 09:  EM64L-G09RevC.01 23-Sep-2011

 ----------------------------------------------------------------------
 #P HF/6-31G* SCF(Conver=6) NoSymm Test Pop=chelpg IOp(6/33=2) GFInput
 GFPrint
 ----------------------------------------------------------------------

 (Enter /scratch/michal/g09/l101.exe)
 ----------------------------------------------
 MEP - Input generated by R.E.D.-III.x MOLECULE
 ----------------------------------------------
 Charge =  0 Multiplicity = 1

                          Input orientation:
 ---------------------------------------------------------------------
 Center     Atomic      Atomic             Coordinates (Angstroms)
 Number     Number       Type             X           Y           Z
 ---------------------------------------------------------------------
      1          8           0        6.840572    0.787533    0.000000
      2          1           0        7.400930    0.000000    0.000000
      3          8           0       10.400769   -2.031763    4.946893
      4          1           0       10.082092   -1.922627    5.853922
      5          6           0        2.776792   -0.583509    0.728937
      6          6           0        4.085648    0.222794    0.501284
      7          1           0        4.591603   -0.271962   -0.339939
      8          6           0        5.081287    0.186906    1.666962
      9          1           0        4.628577    0.674869    2.542339
     10          6           0        5.440689   -1.276759    2.028375
     11          1           0        6.023130   -1.663112    1.175362
     12          6           0        2.039480   -0.276821   -0.620797
     13          1           0        2.568836   -0.861585   -1.387429
     14          6           0        3.202726   -2.047336    0.961288
     15          1           0        3.677012   -2.424926    0.043991
     16          1           0        2.342831   -2.696068    1.157087
     17          6           0        6.390778   -1.368456    3.273581
     18          6           0        3.614841    1.585382   -0.027745
     19          1           0        4.388148    2.079369   -0.622551
     20          1           0        3.362000    2.262356    0.798413
     21          6           0        4.186859   -2.176391    2.142118
     22          1           0        3.647614   -1.946402    3.066837
     23          1           0        4.493556   -3.225412    2.226234
     24          6           0        2.353000    1.236666   -0.865542
     25          1           0        1.500625    1.855404   -0.560528
     26          1           0        2.511738    1.436347   -1.929761
     27          6           0        6.357111    0.994677    1.348329
     28          1           0        6.106553    2.061554    1.367531
     29          6           0        0.530210   -0.597901   -0.755779
     30          1           0        0.000000    0.000000    0.000000
     31          6           0        1.949893   -0.057609    1.924253
     32          1           0        2.518400   -0.059246    2.857810
     33          1           0        1.602399    0.967102    1.761376
     34          1           0        1.063453   -0.680281    2.086271
     35          6           0        7.503029   -0.315716    3.176720
     36          6           0        7.053372   -2.780827    3.293252
     37          1           0        7.436350   -2.995148    2.285749
     38          1           0        6.288405   -3.536786    3.500425
     39          6           0        7.462704    0.723615    2.326698
     40          1           0        8.300644    1.419549    2.297670
     41          6           0        5.617667   -1.139708    4.600989
     42          1           0        4.934904   -1.968313    4.811487
     43          1           0        6.296688   -1.058345    5.453360
     44          1           0        5.033813   -0.215068    4.565268
     45          6           0        8.687391   -0.482637    4.111011
     46          1           0        9.457616    0.260333    3.881953
     47          1           0        8.371131   -0.298536    5.150203
     48          6           0        8.209107   -2.942270    4.292505
     49          1           0        7.841270   -2.848224    5.324933
     50          1           0        8.643554   -3.944517    4.204618
     51          6           0       -0.047410   -0.140101   -2.123158
     52          1           0       -1.132086   -0.321121   -2.100187
     53          1           0        0.070808    0.945364   -2.214992
     54          6           0        9.294097   -1.892829    4.052277
     55          1           0        9.732073   -2.050225    3.058885
     56          6           0        0.182377   -2.075221   -0.492063
     57          1           0        0.801709   -2.755945   -1.086554
     58          1           0       -0.865824   -2.272987   -0.746102
     59          1           0        0.316860   -2.344424    0.558654
     60          6           0        0.530712   -0.825565   -3.373117
     61          1           0        1.593983   -0.578282   -3.481277
     62          1           0        0.488928   -1.914337   -3.243921
     63          6           0       -0.217216   -0.484189   -4.676237
     64          1           0       -1.268572   -0.785603   -4.561175
     65          1           0        0.188589   -1.106377   -5.487860
     66          6           0       -0.180755    0.988210   -5.138478
     67          1           0       -0.581646    1.615032   -4.329160
     68          6           0       -1.089915    1.181593   -6.362862
     69          1           0       -0.738976    0.577722   -7.209716
     70          1           0       -1.105518    2.228752   -6.686111
     71          1           0       -2.121702    0.881901   -6.145920
     72          6           0        1.245714    1.470154   -5.446924
     73          1           0        1.698044    0.862646   -6.241692
     74          1           0        1.242271    2.511967   -5.787120
     75          1           0        1.900245    1.412904   -4.571357
 ---------------------------------------------------------------------

 SCF Done:  E(RHF) =  -1198.92646944     A.U. after    9 cycles

 Alpha  occ. eigenvalues --  -20.56052 -20.55390 -11.28228 -11.27811 -11.25024
 Alpha  occ. eigenvalues --  -11.24481 -11.23139 -11.23077 -11.23061 -11.22713
 Alpha  occ. eigenvalues --  -11.22552 -11.22450 -11.22267 -11.22232 -11.22222
 Alpha  occ. eigenvalues --  -11.22211 -11.21975 -11.21771 -11.21526 -11.21372
 Alpha  occ. eigenvalues --  -11.21292 -11.21220 -11.21106 -11.21055 -11.20949
 Alpha  occ. eigenvalues --  -11.20873 -11.20842 -11.20828 -11.20723  -1.35434
 Alpha  occ. eigenvalues --   -1.34471  -1.16013  -1.13893  -1.09554  -1.07995
 Alpha  occ. eigenvalues --   -1.06036  -1.05649  -1.03088  -1.01610  -0.99427
 Alpha  occ. eigenvalues --   -0.97955  -0.96287  -0.92903  -0.92375  -0.92201
 Alpha  occ. eigenvalues --   -0.90906  -0.90693  -0.86490  -0.84052  -0.82878
 Alpha  occ. eigenvalues --   -0.82620  -0.79306  -0.78284  -0.77137  -0.75242
 Alpha  occ. eigenvalues --   -0.72654  -0.71361  -0.69794  -0.67651  -0.66589
 Alpha  occ. eigenvalues --   -0.64640  -0.64199  -0.63872  -0.63245  -0.62964
 Alpha  occ. eigenvalues --   -0.62015  -0.61225  -0.60881  -0.60467  -0.58904
 Alpha  occ. eigenvalues --   -0.58647  -0.58270  -0.57365  -0.56574  -0.56558
 Alpha  occ. eigenvalues --   -0.56107  -0.55782  -0.55631  -0.54833  -0.54446
 Alpha  occ. eigenvalues --   -0.54121  -0.53742  -0.53327  -0.53013  -0.52898
 Alpha  occ. eigenvalues --   -0.52728  -0.52034  -0.50925  -0.50733  -0.50204
 Alpha  occ. eigenvalues --   -0.48537  -0.48255  -0.48138  -0.47971  -0.47475
 Alpha  occ. eigenvalues --   -0.47036  -0.46597  -0.46229  -0.45551  -0.45267
 Alpha  occ. eigenvalues --   -0.44970  -0.44656  -0.43747  -0.43659  -0.43401
 Alpha  occ. eigenvalues --   -0.42894  -0.42690  -0.42191  -0.41688  -0.40062
 Alpha  occ. eigenvalues --   -0.38370  -0.34573
 Alpha virt. eigenvalues --    0.16193   0.20227   0.21036   0.21376   0.22383
 Alpha virt. eigenvalues --    0.23160   0.23944   0.24225   0.24476   0.25197
 Alpha virt. eigenvalues --    0.25501   0.26093   0.26695   0.27130   0.27659

 Mulliken atomic charges:
              1
     1  O   -0.768528
     2  H    0.433705
     3  O   -0.758642
     4  H    0.428731
     5  C   -0.028667
     6  C   -0.144783
     7  H    0.175308
     8  C   -0.187754
     9  H    0.163099
    10  C   -0.163654
    11  H    0.147602
    12  C   -0.141820
    13  H    0.158740
    14  C   -0.298146
    15  H    0.152368
    16  H    0.164181
    17  C   -0.040250
    18  C   -0.326802
    19  H    0.189089
    20  H    0.150760
    21  C   -0.326959
    22  H    0.164771
    23  H    0.164757
    24  C   -0.339051
    25  H    0.158259
    26  H    0.170704
    27  C    0.176601
    28  H    0.180302
    29  C   -0.147048
    30  H    0.155964
    31  C   -0.489883
    32  H    0.160108
    33  H    0.165888
    34  H    0.161890
    35  C    0.073015
    36  C   -0.324199
    37  H    0.161662
    38  H    0.174711
    39  C   -0.286468
    40  H    0.192158
    41  C   -0.480628
    42  H    0.167385
    43  H    0.162797
    44  H    0.171212
    45  C   -0.367195
    46  H    0.194109
    47  H    0.155287
    48  C   -0.340902
    49  H    0.145583
    50  H    0.184032
    51  C   -0.313235
    52  H    0.150972
    53  H    0.165472
    54  C    0.194422
    55  H    0.171232
    56  C   -0.486528
    57  H    0.157180
    58  H    0.157314
    59  H    0.160782
    60  C   -0.318926
    61  H    0.159014
    62  H    0.160044
    63  C   -0.297539
    64  H    0.150708
    65  H    0.150365
    66  C   -0.152310
    67  H    0.156627
    68  C   -0.471680
    69  H    0.152009
    70  H    0.157891
    71  H    0.157219
    72  C   -0.479403
    73  H    0.151977
    74  H    0.158489
    75  H    0.164507
 Sum of Mulliken atomic charges =   0.00000

 Dipole moment (field-independent basis, Debye):
    X=             -1.4264    Y=             -0.9805    Z=              2.0505  Tot=              2.6834
 Quadrupole moment (field-independent basis, Debye-Ang):
   XX=           -216.3204   YY=           -185.9749   ZZ=           -177.3473
   XY=             -2.8905   XZ=              5.6894   YZ=              0.9547

 Normal termination of Gaussian 09 at Wed May 17 13:27:23 2017.
