 Gaussian 09, Revision C.01,
 Gaussian 09:  EM64L-G09RevC.01 23-Sep-2011

 ----------------------------------------------------------------------
 #P HF/6-31G* SCF(Conver=6) NoSymm Test Pop=chelpg IOp(6/33=2) GFInput
 GFPrint
 ----------------------------------------------------------------------

 (Enter /scratch/michal/g09/l101.exe)
 ----------------------------------------------
 MEP - Input generated by R.E.D.-III.x MOLECULE
 ----------------------------------------------
 Charge =  0 Multiplicity = 1

                          Input orientation:
 ---------------------------------------------------------------------
 Center     Atomic      Atomic             Coordinates (Angstroms)
 Number     Number       Type             X           Y           Z
 ---------------------------------------------------------------------
      1          8           0        6.741686    0.902646    0.000000
      2          1           0        7.087237    0.000000    0.000000
      3          8           0        9.643266   -2.662096    4.897895
      4          1           0        9.394097   -2.462970    5.811373
      5          6           0        2.501179    0.606393    0.898701
      6          6           0        3.952665    1.061517    0.600602
      7          1           0        4.289496    0.442437   -0.242310
      8          6           0        4.948474    0.791785    1.733905
      9          1           0        4.667753    1.388921    2.613466
     10          6           0        4.937786   -0.713984    2.112096
     11          1           0        5.378843   -1.240909    1.249642
     12          6           0        1.819164    1.054061   -0.432418
     13          1           0        2.260552    0.388485   -1.187980
     14          6           0        2.540524   -0.913259    1.133169
     15          1           0        2.866425   -1.405362    0.205462
     16          1           0        1.542628   -1.309334    1.364808
     17          6           0        5.876030   -1.026437    3.330587
     18          6           0        3.800279    2.490424    0.045984
     19          1           0        4.627304    2.753409   -0.619346
     20          1           0        3.793092    3.230140    0.856816
     21          6           0        3.505113   -1.282849    2.279277
     22          1           0        3.073530   -0.932552    3.222153
     23          1           0        3.553467   -2.374883    2.358661
     24          6           0        2.424716    2.468535   -0.692350
     25          1           0        1.774913    3.257857   -0.304662
     26          1           0        2.536497    2.658692   -1.764791
     27          6           0        6.375259    1.243419    1.357973
     28          1           0        6.403708    2.339225    1.361632
     29          6           0        0.277340    0.880149   -0.598154
     30          1           0        0.000000    0.000000    0.000000
     31          6           0        1.892456    1.322017    2.124485
     32          1           0        2.478360    1.159073    3.032688
     33          1           0        1.822922    2.403544    1.978381
     34          1           0        0.882912    0.948018    2.324043
     35          6           0        7.214743   -0.291606    3.177526
     36          6           0        6.159923   -2.560305    3.362649
     37          1           0        6.440342   -2.879469    2.349130
     38          1           0        5.236495   -3.094393    3.610552
     39          6           0        7.409709    0.713002    2.307346
     40          1           0        8.395109    1.172929    2.238451
     41          6           0        5.232517   -0.589924    4.675142
     42          1           0        4.370842   -1.215802    4.925954
     43          1           0        5.939697   -0.670046    5.504454
     44          1           0        4.899768    0.451621    4.635553
     45          6           0        8.350023   -0.740774    4.079227
     46          1           0        9.274724   -0.220702    3.810633
     47          1           0        8.127002   -0.468014    5.123118
     48          6           0        7.271278   -2.995287    4.330049
     49          1           0        6.975271   -2.796040    5.370588
     50          1           0        7.434258   -4.076182    4.252078
     51          6           0       -0.579973    2.072955   -0.111104
     52          1           0       -0.284192    2.350129    0.905784
     53          1           0       -0.352447    2.946229   -0.736358
     54          6           0        8.577612   -2.259427    4.033859
     55          1           0        8.926797   -2.536840    3.031587
     56          6           0       -0.046592    0.542418   -2.068385
     57          1           0        0.211449    1.379668   -2.729274
     58          1           0       -1.107357    0.319174   -2.217013
     59          1           0        0.521262   -0.332315   -2.403684
     60          6           0       -2.111132    1.873509   -0.150400
     61          1           0       -2.578207    2.811841    0.175092
     62          1           0       -2.434086    1.739195   -1.189905
     63          6           0       -2.681948    0.707955    0.678904
     64          1           0       -2.268018   -0.239344    0.307646
     65          1           0       -3.764499    0.652122    0.490503
     66          6           0       -2.465830    0.770055    2.205694
     67          1           0       -1.385221    0.825758    2.399022
     68          6           0       -2.986375   -0.515640    2.868375
     69          1           0       -4.067284   -0.625280    2.712226
     70          1           0       -2.806537   -0.508280    3.949556
     71          1           0       -2.499288   -1.405408    2.452886
     72          6           0       -3.119791    2.006474    2.843003
     73          1           0       -4.201916    2.012813    2.657980
     74          1           0       -2.969040    2.012895    3.928540
     75          1           0       -2.709020    2.941375    2.448608
 ---------------------------------------------------------------------

 SCF Done:  E(RHF) =  -1198.92160640     A.U. after    9 cycles

 Alpha  occ. eigenvalues --  -20.56061 -20.55385 -11.28236 -11.27809 -11.25057
 Alpha  occ. eigenvalues --  -11.24496 -11.23228 -11.23094 -11.23071 -11.22724
 Alpha  occ. eigenvalues --  -11.22497 -11.22458 -11.22334 -11.22290 -11.22287
 Alpha  occ. eigenvalues --  -11.22237 -11.22070 -11.21686 -11.21659 -11.21515
 Alpha  occ. eigenvalues --  -11.21456 -11.21243 -11.21157 -11.21090 -11.21022
 Alpha  occ. eigenvalues --  -11.21008 -11.20922 -11.20816 -11.20815  -1.35444
 Alpha  occ. eigenvalues --   -1.34467  -1.16040  -1.13921  -1.09647  -1.08004
 Alpha  occ. eigenvalues --   -1.06059  -1.05621  -1.03070  -1.01674  -0.99483
 Alpha  occ. eigenvalues --   -0.97984  -0.96181  -0.92758  -0.92495  -0.92114
 Alpha  occ. eigenvalues --   -0.91508  -0.90759  -0.86507  -0.84183  -0.83065
 Alpha  occ. eigenvalues --   -0.82665  -0.79431  -0.78158  -0.77511  -0.75023
 Alpha  occ. eigenvalues --   -0.72284  -0.71324  -0.69808  -0.67627  -0.66531
 Alpha  occ. eigenvalues --   -0.64475  -0.64270  -0.63891  -0.63611  -0.62744
 Alpha  occ. eigenvalues --   -0.62202  -0.61280  -0.61114  -0.60152  -0.59193
 Alpha  occ. eigenvalues --   -0.58942  -0.58289  -0.57986  -0.57272  -0.56350
 Alpha  occ. eigenvalues --   -0.56001  -0.55940  -0.55125  -0.55052  -0.54708
 Alpha  occ. eigenvalues --   -0.53905  -0.53599  -0.53316  -0.53038  -0.52801
 Alpha  occ. eigenvalues --   -0.52258  -0.51913  -0.51454  -0.51092  -0.50176
 Alpha  occ. eigenvalues --   -0.48581  -0.48386  -0.48217  -0.48110  -0.47532
 Alpha  occ. eigenvalues --   -0.46891  -0.46621  -0.46226  -0.45724  -0.45324
 Alpha  occ. eigenvalues --   -0.45036  -0.44838  -0.44222  -0.43785  -0.43194
 Alpha  occ. eigenvalues --   -0.42825  -0.42459  -0.41970  -0.41582  -0.40076
 Alpha  occ. eigenvalues --   -0.38464  -0.34585
 Alpha virt. eigenvalues --    0.16177   0.20024   0.21026   0.21346   0.22712
 Alpha virt. eigenvalues --    0.23100   0.23647   0.24064   0.24600   0.25308
 Alpha virt. eigenvalues --    0.25706   0.26133   0.26449   0.26799   0.27184

 Mulliken atomic charges:
              1
     1  O   -0.768544
     2  H    0.433687
     3  O   -0.758616
     4  H    0.428742
     5  C   -0.031436
     6  C   -0.145353
     7  H    0.175938
     8  C   -0.187859
     9  H    0.163434
    10  C   -0.163918
    11  H    0.147787
    12  C   -0.146853
    13  H    0.157687
    14  C   -0.296292
    15  H    0.152806
    16  H    0.157599
    17  C   -0.040289
    18  C   -0.327590
    19  H    0.188234
    20  H    0.150864
    21  C   -0.327308
    22  H    0.165679
    23  H    0.165432
    24  C   -0.330443
    25  H    0.164167
    26  H    0.166005
    27  C    0.177723
    28  H    0.180323
    29  C   -0.149314
    30  H    0.159091
    31  C   -0.496446
    32  H    0.160611
    33  H    0.166698
    34  H    0.167885
    35  C    0.072926
    36  C   -0.324410
    37  H    0.161701
    38  H    0.174834
    39  C   -0.286935
    40  H    0.192214
    41  C   -0.480662
    42  H    0.167192
    43  H    0.162920
    44  H    0.171465
    45  C   -0.367240
    46  H    0.194168
    47  H    0.155286
    48  C   -0.340929
    49  H    0.145600
    50  H    0.184068
    51  C   -0.317563
    52  H    0.163634
    53  H    0.157006
    54  C    0.194444
    55  H    0.171250
    56  C   -0.484672
    57  H    0.155361
    58  H    0.162589
    59  H    0.158084
    60  C   -0.317267
    61  H    0.158639
    62  H    0.159665
    63  C   -0.303012
    64  H    0.155092
    65  H    0.151027
    66  C   -0.160047
    67  H    0.160950
    68  C   -0.470998
    69  H    0.153355
    70  H    0.157344
    71  H    0.156137
    72  C   -0.475967
    73  H    0.152515
    74  H    0.157709
    75  H    0.162397
 Sum of Mulliken atomic charges =   0.00000

 Dipole moment (field-independent basis, Debye):
    X=             -1.4787    Y=             -0.5753    Z=              1.9824  Tot=              2.5392
 Quadrupole moment (field-independent basis, Debye-Ang):
   XX=           -215.1480   YY=           -188.9527   ZZ=           -175.8519
   XY=              1.9964   XZ=              7.3873   YZ=              2.7493

 Normal termination of Gaussian 09 at Wed May 17 12:47:34 2017.
