 Gaussian 09, Revision C.01,
 Gaussian 09:  EM64L-G09RevC.01 23-Sep-2011

 ----------------------------------------------------------------------
 #P HF/6-31G* SCF(Conver=6) NoSymm Test Pop=chelpg IOp(6/33=2) GFInput
 GFPrint
 ----------------------------------------------------------------------

 (Enter /scratch/michal/g09/l101.exe)
 ----------------------------------------------
 MEP - Input generated by R.E.D.-III.x MOLECULE
 ----------------------------------------------
 Charge =  0 Multiplicity = 1

                          Input orientation:
 ---------------------------------------------------------------------
 Center     Atomic      Atomic             Coordinates (Angstroms)
 Number     Number       Type             X           Y           Z
 ---------------------------------------------------------------------
      1          8           0        5.764130    3.447655    0.000000
      2          1           0        5.126793    3.290475    0.709432
      3          8           0        0.000000    0.000000    0.000000
      4          1           0       -0.083135   -0.743547   -0.613512
      5          6           0        8.819426    0.371965    0.371947
      6          6           0        7.895722    1.546588   -0.056092
      7          1           0        7.717429    2.127838    0.859851
      8          6           0        6.509798    1.132739   -0.565972
      9          1           0        6.625912    0.548639   -1.490521
     10          6           0        5.776962    0.269932    0.492123
     11          1           0        5.554472    0.948106    1.332793
     12          6           0       10.103286    1.175911    0.781373
     13          1           0        9.866987    1.654004    1.745310
     14          6           0        8.079844   -0.368271    1.505665
     15          1           0        7.980363    0.313235    2.362761
     16          1           0        8.642372   -1.236535    1.862863
     17          6           0        4.387981   -0.250701   -0.018972
     18          6           0        8.779134    2.425180   -0.951827
     19          1           0        8.425558    3.459440   -0.984674
     20          1           0        8.784995    2.052954   -1.984362
     21          6           0        6.682475   -0.847344    1.061735
     22          1           0        6.810253   -1.637964    0.315116
     23          1           0        6.188847   -1.320260    1.918641
     24          6           0       10.186798    2.301193   -0.306954
     25          1           0       10.941993    2.046649   -1.060470
     26          1           0       10.501541    3.250439    0.136352
     27          6           0        5.656535    2.360374   -0.949124
     28          1           0        6.059949    2.789028   -1.873724
     29          6           0       11.450722    0.431630    0.971546
     30          1           0       11.736913    0.000000    0.000000
     31          6           0        9.140833   -0.589759   -0.794929
     32          1           0        8.239848   -1.007943   -1.251159
     33          1           0        9.702846   -0.091717   -1.590770
     34          1           0        9.747258   -1.432957   -0.447708
     35          6           0        3.628921    0.870549   -0.740857
     36          6           0        3.541148   -0.703026    1.210779
     37          1           0        3.591354    0.087524    1.972482
     38          1           0        3.998165   -1.592340    1.657826
     39          6           0        4.211050    2.009637   -1.150735
     40          1           0        3.603501    2.771901   -1.637732
     41          6           0        4.550029   -1.440922   -1.003517
     42          1           0        4.918338   -2.334415   -0.490557
     43          1           0        3.599434   -1.707987   -1.471790
     44          1           0        5.248215   -1.196173   -1.809643
     45          6           0        2.150849    0.641435   -0.998313
     46          1           0        1.696324    1.542496   -1.421649
     47          1           0        2.022424   -0.157418   -1.746110
     48          6           0        2.062005   -0.989660    0.910621
     49          1           0        1.966372   -1.854115    0.237091
     50          1           0        1.535932   -1.253071    1.835195
     51          6           0       12.562923    1.434747    1.367877
     52          1           0       12.545599    2.284003    0.674829
     53          1           0       12.321755    1.846330    2.358775
     54          6           0        1.387142    0.221279    0.266834
     55          1           0        1.392578    1.055823    0.978834
     56          6           0       11.374277   -0.715087    1.994909
     57          1           0       11.021018   -0.349722    2.967624
     58          1           0       12.355342   -1.173907    2.149452
     59          1           0       10.698971   -1.510854    1.673129
     60          6           0       13.990982    0.862661    1.369200
     61          1           0       14.108537    0.120533    2.167192
     62          1           0       14.151538    0.318366    0.427580
     63          6           0       15.094929    1.929161    1.494070
     64          1           0       15.012968    2.618084    0.640900
     65          1           0       16.073368    1.436297    1.392911
     66          6           0       15.108215    2.763608    2.792637
     67          1           0       14.136804    3.270002    2.885656
     68          6           0       16.189284    3.853325    2.711791
     69          1           0       17.188235    3.407343    2.621583
     70          1           0       16.187135    4.483941    3.608219
     71          1           0       16.036241    4.504304    1.843323
     72          6           0       15.309965    1.896465    4.045439
     73          1           0       16.259705    1.348409    3.990781
     74          1           0       15.335971    2.515458    4.949513
     75          1           0       14.508356    1.161735    4.173138
 ---------------------------------------------------------------------

 SCF Done:  E(RHF) =  -1198.92722210     A.U. after    9 cycles

 Alpha  occ. eigenvalues --  -20.56051 -20.55383 -11.28226 -11.27806 -11.25017
 Alpha  occ. eigenvalues --  -11.24476 -11.23122 -11.23073 -11.23059 -11.22710
 Alpha  occ. eigenvalues --  -11.22574 -11.22446 -11.22281 -11.22263 -11.22238
 Alpha  occ. eigenvalues --  -11.22202 -11.21962 -11.21859 -11.21518 -11.21442
 Alpha  occ. eigenvalues --  -11.21386 -11.21195 -11.21064 -11.21044 -11.20937
 Alpha  occ. eigenvalues --  -11.20932 -11.20914 -11.20787 -11.20674  -1.35432
 Alpha  occ. eigenvalues --   -1.34466  -1.16002  -1.13867  -1.09621  -1.08051
 Alpha  occ. eigenvalues --   -1.06034  -1.05710  -1.03079  -1.01662  -0.99476
 Alpha  occ. eigenvalues --   -0.97974  -0.96260  -0.92898  -0.92382  -0.92289
 Alpha  occ. eigenvalues --   -0.90922  -0.90629  -0.86485  -0.84023  -0.82608
 Alpha  occ. eigenvalues --   -0.82495  -0.79251  -0.78303  -0.77167  -0.74669
 Alpha  occ. eigenvalues --   -0.73642  -0.71813  -0.69775  -0.67619  -0.66583
 Alpha  occ. eigenvalues --   -0.64809  -0.64260  -0.63922  -0.63499  -0.62336
 Alpha  occ. eigenvalues --   -0.61534  -0.61260  -0.61027  -0.60390  -0.59247
 Alpha  occ. eigenvalues --   -0.58618  -0.58185  -0.57630  -0.56804  -0.56577
 Alpha  occ. eigenvalues --   -0.56213  -0.55755  -0.55417  -0.54929  -0.54389
 Alpha  occ. eigenvalues --   -0.54065  -0.53910  -0.53357  -0.52980  -0.52890
 Alpha  occ. eigenvalues --   -0.52486  -0.52038  -0.50973  -0.50179  -0.49717
 Alpha  occ. eigenvalues --   -0.49028  -0.48352  -0.48072  -0.47886  -0.47341
 Alpha  occ. eigenvalues --   -0.46959  -0.46780  -0.46045  -0.45614  -0.45448
 Alpha  occ. eigenvalues --   -0.45122  -0.44544  -0.44234  -0.43448  -0.43331
 Alpha  occ. eigenvalues --   -0.43126  -0.42808  -0.42418  -0.41614  -0.40039
 Alpha  occ. eigenvalues --   -0.38295  -0.34568
 Alpha virt. eigenvalues --    0.16197   0.20571   0.21347   0.21635   0.22515
 Alpha virt. eigenvalues --    0.22921   0.24118   0.24500   0.24937   0.25264
 Alpha virt. eigenvalues --    0.25968   0.26222   0.26437   0.27142   0.27291

 Mulliken atomic charges:
              1
     1  O   -0.768469
     2  H    0.433676
     3  O   -0.758640
     4  H    0.428732
     5  C   -0.029898
     6  C   -0.145215
     7  H    0.175554
     8  C   -0.187660
     9  H    0.163020
    10  C   -0.163602
    11  H    0.147632
    12  C   -0.135968
    13  H    0.153235
    14  C   -0.298249
    15  H    0.152531
    16  H    0.164069
    17  C   -0.040229
    18  C   -0.326427
    19  H    0.188718
    20  H    0.150425
    21  C   -0.326790
    22  H    0.164720
    23  H    0.164700
    24  C   -0.335879
    25  H    0.157389
    26  H    0.169640
    27  C    0.176520
    28  H    0.180262
    29  C   -0.148923
    30  H    0.151707
    31  C   -0.488914
    32  H    0.159676
    33  H    0.165910
    34  H    0.162197
    35  C    0.073012
    36  C   -0.324174
    37  H    0.161656
    38  H    0.174698
    39  C   -0.286493
    40  H    0.192108
    41  C   -0.480675
    42  H    0.167374
    43  H    0.162786
    44  H    0.171211
    45  C   -0.367162
    46  H    0.194095
    47  H    0.155287
    48  C   -0.340914
    49  H    0.145595
    50  H    0.184012
    51  C   -0.311605
    52  H    0.165730
    53  H    0.151243
    54  C    0.194412
    55  H    0.171221
    56  C   -0.485528
    57  H    0.152085
    58  H    0.164346
    59  H    0.161200
    60  C   -0.312950
    61  H    0.158414
    62  H    0.153917
    63  C   -0.298392
    64  H    0.151620
    65  H    0.150287
    66  C   -0.151989
    67  H    0.157790
    68  C   -0.471886
    69  H    0.151895
    70  H    0.157956
    71  H    0.157889
    72  C   -0.476703
    73  H    0.151643
    74  H    0.158168
    75  H    0.161372
 Sum of Mulliken atomic charges =   0.00000

 Dipole moment (field-independent basis, Debye):
    X=              0.1843    Y=             -2.5369    Z=             -0.3997  Tot=              2.5748
 Quadrupole moment (field-independent basis, Debye-Ang):
   XX=           -199.4021   YY=           -192.4946   ZZ=           -183.0574
   XY=            -11.5765   XZ=              0.4251   YZ=              2.0834

 Normal termination of Gaussian 09 at Wed May 17 11:53:06 2017.
