 Gaussian 09, Revision C.01,
 Gaussian 09:  EM64L-G09RevC.01 23-Sep-2011

 ----------------------------------------------------------------------
 #P HF/6-31G* SCF(Conver=6) NoSymm Test Pop=chelpg IOp(6/33=2) GFInput
 GFPrint
 ----------------------------------------------------------------------

 (Enter /scratch/michal/g09/l101.exe)
 ----------------------------------------------
 MEP - Input generated by R.E.D.-III.x MOLECULE
 ----------------------------------------------
 Charge =  0 Multiplicity = 1

                          Input orientation:
 ---------------------------------------------------------------------
 Center     Atomic      Atomic             Coordinates (Angstroms)
 Number     Number       Type             X           Y           Z
 ---------------------------------------------------------------------
      1          8           0        0.000000    0.000000    0.000000
      2          1           0        0.966560    0.000000    0.000000
      3          8           0        4.352734   -1.315873   -4.941912
      4          1           0        4.078380   -1.125587   -5.850033
      5          6           0       -1.226928    4.106442   -0.756052
      6          6           0       -1.128166    2.573584   -0.518245
      7          1           0       -0.432605    2.451761    0.324347
      8          6           0       -0.525181    1.772576   -1.678767
      9          1           0       -1.185969    1.854708   -2.553928
     10          6           0        0.876825    2.320553   -2.046574
     11          1           0        1.530037    2.075344   -1.192550
     12          6           0       -1.901736    4.544377    0.591292
     13          1           0       -1.115943    4.476220    1.360351
     14          6           0        0.214822    4.600405   -0.996041
     15          1           0        0.798369    4.437206   -0.078548
     16          1           0        0.250781    5.675154   -1.199976
     17          6           0        1.498500    1.588341   -3.287093
     18          6           0       -2.512133    2.175766    0.011848
     19          1           0       -2.474286    1.254297    0.599427
     20          1           0       -3.214562    2.003645   -0.813796
     21          6           0        0.885368    3.862313   -2.172812
     22          1           0        0.382705    4.161511   -3.098379
     23          1           0        1.918117    4.218515   -2.263203
     24          6           0       -2.941456    3.402675    0.862203
     25          1           0       -3.950804    3.734592    0.590285
     26          1           0       -2.975988    3.150526    1.926064
     27          6           0       -0.448960    0.266601   -1.349769
     28          1           0       -1.464934   -0.144381   -1.365489
     29          6           0       -2.525771    5.959114    0.715310
     30          1           0       -3.360273    6.021673    0.000000
     31          6           0       -2.138463    4.466494   -1.951730
     32          1           0       -1.812277    3.994891   -2.882376
     33          1           0       -3.174692    4.159060   -1.781431
     34          1           0       -2.144685    5.547926   -2.123801
     35          6           0        1.280788    0.073376   -3.178680
     36          6           0        3.034207    1.862315   -3.310592
     37          1           0        3.431351    1.680728   -2.302141
     38          1           0        3.209829    2.921769   -3.525797
     39          6           0        0.409535   -0.486976   -2.323540
     40          1           0        0.324870   -1.572677   -2.286116
     41          6           0        0.863566    2.077685   -4.617364
     42          1           0        1.146033    3.111759   -4.836419
     43          1           0        1.187398    1.469599   -5.465669
     44          1           0       -0.228469    2.021261   -4.579356
     45          6           0        2.099710   -0.804758   -4.107024
     46          1           0        1.937882   -1.860738   -3.869443
     47          1           0        1.765639   -0.661033   -5.146997
     48          6           0        3.831925    1.004195   -4.304344
     49          1           0        3.541745    1.242615   -5.338281
     50          1           0        4.901239    1.228526   -4.219357
     51          6           0       -3.123307    6.157441    2.130777
     52          1           0       -3.725896    5.281242    2.395362
     53          1           0       -2.299081    6.189771    2.860054
     54          6           0        3.601537   -0.485671   -4.052611
     55          1           0        3.984092   -0.744925   -3.057686
     56          6           0       -1.535570    7.091339    0.389645
     57          1           0       -0.640781    7.022838    1.021257
     58          1           0       -1.986372    8.073483    0.560239
     59          1           0       -1.210076    7.068498   -0.652721
     60          6           0       -4.007925    7.402758    2.308528
     61          1           0       -3.420003    8.311818    2.138793
     62          1           0       -4.791712    7.391688    1.538785
     63          6           0       -4.648611    7.462598    3.704979
     64          1           0       -3.848671    7.434361    4.459099
     65          1           0       -5.241270    6.549320    3.859297
     66          6           0       -5.551542    8.682542    4.002039
     67          1           0       -5.917197    8.542918    5.030197
     68          6           0       -6.786764    8.741791    3.088086
     69          1           0       -6.509744    8.942862    2.046775
     70          1           0       -7.468216    9.539763    3.404559
     71          1           0       -7.344734    7.798199    3.109466
     72          6           0       -4.780626   10.012897    3.975338
     73          1           0       -4.434110   10.260010    2.965206
     74          1           0       -5.417237   10.838872    4.312636
     75          1           0       -3.902711    9.978701    4.631230
 ---------------------------------------------------------------------

 SCF Done:  E(RHF) =  -1198.92705457     A.U. after    9 cycles

 Alpha  occ. eigenvalues --  -20.56041 -20.55371 -11.28215 -11.27793 -11.25005
 Alpha  occ. eigenvalues --  -11.24460 -11.23113 -11.23063 -11.23047 -11.22700
 Alpha  occ. eigenvalues --  -11.22556 -11.22433 -11.22432 -11.22252 -11.22206
 Alpha  occ. eigenvalues --  -11.22188 -11.21948 -11.21839 -11.21500 -11.21404
 Alpha  occ. eigenvalues --  -11.21301 -11.21190 -11.21040 -11.21028 -11.20957
 Alpha  occ. eigenvalues --  -11.20942 -11.20922 -11.20760 -11.20657  -1.35423
 Alpha  occ. eigenvalues --   -1.34453  -1.15987  -1.13848  -1.09536  -1.08033
 Alpha  occ. eigenvalues --   -1.06024  -1.05731  -1.03063  -1.01668  -0.99467
 Alpha  occ. eigenvalues --   -0.97953  -0.96245  -0.92875  -0.92365  -0.92309
 Alpha  occ. eigenvalues --   -0.90877  -0.90618  -0.86474  -0.84284  -0.82711
 Alpha  occ. eigenvalues --   -0.82593  -0.79071  -0.78057  -0.77085  -0.74536
 Alpha  occ. eigenvalues --   -0.73579  -0.71767  -0.69763  -0.67614  -0.66573
 Alpha  occ. eigenvalues --   -0.64625  -0.64240  -0.63830  -0.63314  -0.62392
 Alpha  occ. eigenvalues --   -0.62205  -0.61250  -0.60944  -0.60204  -0.59288
 Alpha  occ. eigenvalues --   -0.58668  -0.58377  -0.58027  -0.57155  -0.56579
 Alpha  occ. eigenvalues --   -0.56037  -0.55769  -0.55566  -0.54747  -0.54423
 Alpha  occ. eigenvalues --   -0.54286  -0.53580  -0.53223  -0.52815  -0.52512
 Alpha  occ. eigenvalues --   -0.52033  -0.51499  -0.50897  -0.50749  -0.50600
 Alpha  occ. eigenvalues --   -0.48371  -0.48322  -0.48171  -0.47884  -0.47376
 Alpha  occ. eigenvalues --   -0.46849  -0.46601  -0.45899  -0.45521  -0.45476
 Alpha  occ. eigenvalues --   -0.45008  -0.44802  -0.44351  -0.43841  -0.43313
 Alpha  occ. eigenvalues --   -0.43183  -0.42762  -0.42254  -0.41548  -0.39998
 Alpha  occ. eigenvalues --   -0.38244  -0.34554
 Alpha virt. eigenvalues --    0.16213   0.20596   0.21358   0.21734   0.22306
 Alpha virt. eigenvalues --    0.22872   0.24175   0.24550   0.24980   0.25268
 Alpha virt. eigenvalues --    0.25842   0.26133   0.26500   0.27067   0.27146

 Mulliken atomic charges:
              1
     1  O   -0.768370
     2  H    0.433630
     3  O   -0.758660
     4  H    0.428716
     5  C   -0.029954
     6  C   -0.145089
     7  H    0.175431
     8  C   -0.187755
     9  H    0.163049
    10  C   -0.163590
    11  H    0.147521
    12  C   -0.136143
    13  H    0.153517
    14  C   -0.298179
    15  H    0.152504
    16  H    0.164193
    17  C   -0.040183
    18  C   -0.326448
    19  H    0.188717
    20  H    0.150353
    21  C   -0.326823
    22  H    0.164687
    23  H    0.164654
    24  C   -0.336050
    25  H    0.157281
    26  H    0.169974
    27  C    0.176352
    28  H    0.180283
    29  C   -0.148905
    30  H    0.151612
    31  C   -0.489017
    32  H    0.159640
    33  H    0.165879
    34  H    0.162245
    35  C    0.072901
    36  C   -0.324162
    37  H    0.161645
    38  H    0.174683
    39  C   -0.286147
    40  H    0.192082
    41  C   -0.480677
    42  H    0.167378
    43  H    0.162761
    44  H    0.171203
    45  C   -0.367129
    46  H    0.194073
    47  H    0.155237
    48  C   -0.340884
    49  H    0.145569
    50  H    0.183982
    51  C   -0.307368
    52  H    0.166404
    53  H    0.147712
    54  C    0.194406
    55  H    0.171218
    56  C   -0.484772
    57  H    0.152701
    58  H    0.163130
    59  H    0.160817
    60  C   -0.314668
    61  H    0.158854
    62  H    0.153696
    63  C   -0.300861
    64  H    0.151747
    65  H    0.151649
    66  C   -0.146333
    67  H    0.155425
    68  C   -0.476111
    69  H    0.155891
    70  H    0.157936
    71  H    0.156835
    72  C   -0.476205
    73  H    0.155210
    74  H    0.158207
    75  H    0.156890
 Sum of Mulliken atomic charges =   0.00000

 Dipole moment (field-independent basis, Debye):
    X=             -0.0494    Y=              1.6913    Z=             -1.8593  Tot=              2.5139
 Quadrupole moment (field-independent basis, Debye-Ang):
   XX=           -193.3883   YY=           -188.9323   ZZ=           -175.2965
   XY=              7.6354   XZ=              3.0999   YZ=             -5.8331

 Normal termination of Gaussian 09 at Wed May 17 13:31:29 2017.
