 Gaussian 09, Revision D.01,
 Gaussian 09:  EM64L-G09RevD.01 24-Apr-2013

 ----------------------------------------------------------------------
 #P HF/6-31G* SCF(Conver=6) NoSymm Test Pop=mk IOp(6/33=2) GFInput GFPr
 int
 ----------------------------------------------------------------------

 ----------------------------------------------
 MEP - Input generated by R.E.D.-III.x MOLECULE
 ----------------------------------------------
 Symbolic Z-matrix:
 Charge =  0 Multiplicity = 1

                          Input orientation:
 ---------------------------------------------------------------------
 Center     Atomic      Atomic             Coordinates (Angstroms)
 Number     Number       Type             X           Y           Z
 ---------------------------------------------------------------------
      1          6           0        7.527745    2.214688    0.063050
      2          1           0        7.369340    2.180744    1.147898
      3          6           0        6.830002    1.009040   -0.582370
      4          1           0        7.214723    0.081246   -0.147292
      5          1           0        7.107140    0.997232   -1.649072
      6          6           0        5.319571    1.063587   -0.454191
      7          6           0        4.622601    2.363088   -0.872591
      8          6           0        5.419243    3.565791   -0.276706
      9          1           0        5.225071    3.605782    0.804166
     10          1           0        5.032879    4.500709   -0.695501
     11          6           0        6.939797    3.511917   -0.489867
     12          1           0        7.181491    3.586785   -1.560568
     13          1           0        7.416324    4.368655    0.000000
     14          6           0        4.643137    0.000000    0.000000
     15          1           0        5.188917   -0.891405    0.311146
     16          6           0        3.150684   -0.099667    0.116705
     17          1           0        2.872355   -0.191751    1.179253
     18          6           0        2.383550    1.068378   -0.521508
     19          1           0        2.326772    0.856766   -1.594541
     20          6           0        3.164702    2.393847   -0.293459
     21          1           0        3.284792    2.489636    0.798588
     22          6           0        2.348939    3.623621   -0.756849
     23          1           0        2.291956    3.640860   -1.850488
     24          1           0        2.872138    4.541148   -0.466289
     25          6           0        0.919209    3.676526   -0.184365
     26          1           0        0.970253    3.812696    0.905148
     27          1           0        0.411400    4.560347   -0.588138
     28          6           0        0.132243    2.389404   -0.492424
     29          6           0        0.967224    1.197848    0.066128
     30          1           0        1.112847    1.425668    1.136468
     31          6           0        0.000000    0.000000    0.000000
     32          1           0        0.262397   -0.786160    0.712583
     33          1           0        0.029197   -0.464595   -0.990849
     34          6           0       -1.391685    0.629650    0.290759
     35          1           0       -2.113277    0.346130   -0.482200
     36          1           0       -1.809188    0.278756    1.241161
     37          6           0       -1.183766    2.176294    0.332884
     38          1           0       -0.895112    2.412772    1.366289
     39          6           0       -0.100621    2.260685   -2.016076
     40          1           0        0.831526    2.091612   -2.561021
     41          1           0       -0.769606    1.433037   -2.263661
     42          1           0       -0.544981    3.176132   -2.417411
     43          6           0       -2.500068    2.973204    0.099495
     44          1           0       -3.202860    2.521964    0.819280
     45          6           0       -3.164701    2.827468   -1.284477
     46          1           0       -2.665426    3.433611   -2.046018
     47          1           0       -4.204380    3.169940   -1.230151
     48          1           0       -3.181659    1.793065   -1.639324
     49          6           0        4.629682    2.447824   -2.422214
     50          1           0        4.272268    3.422458   -2.768518
     51          1           0        5.636815    2.312514   -2.825902
     52          1           0        3.998153    1.671099   -2.862928
     53          8           0        2.694150   -1.392711   -0.354889
     54          8           0        2.935682   -1.490570   -1.789709
     55          1           0        3.727645   -2.052549   -1.806105
     56          8           0        8.948435    2.147005   -0.085123
     57          1           0        9.165030    2.203012   -1.026479
     58          6           0       -2.424781    4.474419    0.467242
     59          1           0       -1.703594    4.981955   -0.187051
     60          1           0       -3.401677    4.919473    0.229062
     61          6           0       -2.104208    4.798482    1.934887
     62          1           0       -2.799846    4.242901    2.578580
     63          1           0       -1.098833    4.443639    2.187555
     64          6           0       -2.205956    6.303545    2.232416
     65          1           0       -3.217057    6.646109    1.968768
     66          1           0       -1.520717    6.840923    1.560733
     67          6           0       -1.907656    6.745144    3.684258
     68          1           0       -2.032623    7.838064    3.698083
     69          6           0       -2.907861    6.164046    4.697426
     70          1           0       -2.804043    5.076820    4.790356
     71          1           0       -2.748201    6.593386    5.693126
     72          1           0       -3.942472    6.377340    4.403918
     73          6           0       -0.458889    6.452302    4.108610
     74          1           0       -0.268655    5.375312    4.182003
     75          1           0       -0.244758    6.888755    5.090903
     76          1           0        0.258890    6.871300    3.393494
 ---------------------------------------------------------------------

 SCF Done:  E(RHF) =  -1273.67730206     A.U. after    9 cycles

 Alpha  occ. eigenvalues --  -20.62442 -20.62305 -20.56052 -11.28769 -11.28186
 Alpha  occ. eigenvalues --  -11.24934 -11.24419 -11.23274 -11.23154 -11.22961
 Alpha  occ. eigenvalues --  -11.22674 -11.22662 -11.22649 -11.22554 -11.22366
 Alpha  occ. eigenvalues --  -11.22340 -11.22045 -11.21970 -11.21785 -11.21653
 Alpha  occ. eigenvalues --  -11.21621 -11.21527 -11.21388 -11.21326 -11.21106
 Alpha  occ. eigenvalues --  -11.21032 -11.20817 -11.20680 -11.20627 -11.20425
 Alpha  occ. eigenvalues --   -1.45698  -1.35429  -1.22135  -1.15858  -1.13840
 Alpha  occ. eigenvalues --   -1.09521  -1.08054  -1.05910  -1.05704  -1.03078
 Alpha  occ. eigenvalues --   -1.01665  -0.99625  -0.97841  -0.96342  -0.92434
 Alpha  occ. eigenvalues --   -0.92397  -0.92337  -0.91422  -0.90286  -0.86040
 Alpha  occ. eigenvalues --   -0.83869  -0.83054  -0.82846  -0.79281  -0.78540
 Alpha  occ. eigenvalues --   -0.76830  -0.74531  -0.74393  -0.71683  -0.69386
 Alpha  occ. eigenvalues --   -0.69143  -0.67134  -0.65653  -0.65104  -0.64534
 Alpha  occ. eigenvalues --   -0.63757  -0.63471  -0.62822  -0.62505  -0.61442
 Alpha  occ. eigenvalues --   -0.60975  -0.60023  -0.59582  -0.58910  -0.58546
 Alpha  occ. eigenvalues --   -0.57897  -0.57398  -0.56301  -0.56027  -0.55828
 Alpha  occ. eigenvalues --   -0.55368  -0.55097  -0.54298  -0.54013  -0.53783
 Alpha  occ. eigenvalues --   -0.53525  -0.52895  -0.52694  -0.52144  -0.51660
 Alpha  occ. eigenvalues --   -0.50789  -0.50685  -0.50156  -0.49887  -0.49035
 Alpha  occ. eigenvalues --   -0.48328  -0.47953  -0.47709  -0.47345  -0.46969
 Alpha  occ. eigenvalues --   -0.46787  -0.46293  -0.46059  -0.45222  -0.45123
 Alpha  occ. eigenvalues --   -0.44892  -0.44486  -0.44022  -0.43241  -0.42724
 Alpha  occ. eigenvalues --   -0.42526  -0.41862  -0.41496  -0.40372  -0.38621
 Alpha  occ. eigenvalues --   -0.34426
 Alpha virt. eigenvalues --    0.16137   0.20328   0.20895   0.21568   0.22110
 Alpha virt. eigenvalues --    0.22569   0.22862   0.24119   0.24681   0.25072
 Alpha virt. eigenvalues --    0.25337   0.25858   0.26201   0.27127   0.27553

 Mulliken charges:
               1
     1  C    0.193933
     2  H    0.173835
     3  C   -0.368315
     4  H    0.191940
     5  H    0.155423
     6  C    0.083385
     7  C   -0.042252
     8  C   -0.327419
     9  H    0.165882
    10  H    0.174345
    11  C   -0.341311
    12  H    0.144986
    13  H    0.184025
    14  C   -0.279457
    15  H    0.185797
    16  C    0.191871
    17  H    0.186514
    18  C   -0.183534
    19  H    0.209040
    20  C   -0.168266
    21  H    0.156392
    22  C   -0.327705
    23  H    0.166591
    24  H    0.166829
    25  C   -0.301587
    26  H    0.152860
    27  H    0.162493
    28  C   -0.023518
    29  C   -0.171428
    30  H    0.146629
    31  C   -0.305770
    32  H    0.173103
    33  H    0.178227
    34  C   -0.331597
    35  H    0.160675
    36  H    0.161727
    37  C   -0.155243
    38  H    0.158388
    39  C   -0.485707
    40  H    0.162786
    41  H    0.170665
    42  H    0.159415
    43  C   -0.141287
    44  H    0.152066
    45  C   -0.482601
    46  H    0.156227
    47  H    0.157638
    48  H    0.162038
    49  C   -0.480480
    50  H    0.165874
    51  H    0.160005
    52  H    0.180199
    53  O   -0.393360
    54  O   -0.470533
    55  H    0.458946
    56  O   -0.759077
    57  H    0.428509
    58  C   -0.300416
    59  H    0.152603
    60  H    0.152612
    61  C   -0.318893
    62  H    0.154650
    63  H    0.161267
    64  C   -0.300594
    65  H    0.151716
    66  H    0.150476
    67  C   -0.146248
    68  H    0.155416
    69  C   -0.476196
    70  H    0.156290
    71  H    0.158199
    72  H    0.157137
    73  C   -0.476284
    74  H    0.154656
    75  H    0.158823
    76  H    0.155978
 Sum of Mulliken charges =   0.00000

 Dipole moment (field-independent basis, Debye):
    X=              0.6576    Y=              1.3306    Z=             -0.9744  Tot=              1.7755
 Quadrupole moment (field-independent basis, Debye-Ang):
   XX=           -197.9454   YY=           -186.6751   ZZ=           -188.9753
   XY=             -0.9896   XZ=            -15.2100   YZ=             -2.9362

 ESP charges:
               1
     1  C    0.504951
     2  H    0.049394
     3  C   -0.402999
     4  H    0.127927
     5  H    0.123979
     6  C    0.049509
     7  C    0.382794
     8  C   -0.056477
     9  H    0.019065
    10  H    0.061641
    11  C   -0.372385
    12  H    0.091149
    13  H    0.104378
    14  C   -0.504257
    15  H    0.197098
    16  C    0.499420
    17  H    0.034394
    18  C   -0.326607
    19  H    0.152876
    20  C   -0.241289
    21  H    0.067664
    22  C   -0.116542
    23  H    0.056438
    24  H    0.044796
    25  C   -0.224927
    26  H    0.061937
    27  H    0.043084
    28  C    0.636997
    29  C    0.304691
    30  H   -0.090951
    31  C   -0.073460
    32  H    0.026559
    33  H    0.037951
    34  C   -0.280805
    35  H    0.068906
    36  H    0.072413
    37  C   -0.112551
    38  H   -0.023776
    39  C   -0.568142
    40  H    0.103798
    41  H    0.120940
    42  H    0.109279
    43  C    0.314535
    44  H   -0.019965
    45  C   -0.474262
    46  H    0.099852
    47  H    0.103031
    48  H    0.113551
    49  C   -0.349862
    50  H    0.074232
    51  H    0.081532
    52  H    0.094239
    53  O   -0.349122
    54  O   -0.474503
    55  H    0.463319
    56  O   -0.733662
    57  H    0.418441
    58  C   -0.317760
    59  H    0.055189
    60  H    0.077994
    61  C    0.276352
    62  H   -0.027367
    63  H   -0.065032
    64  C   -0.394383
    65  H    0.070189
    66  H    0.073354
    67  C    0.496419
    68  H   -0.059188
    69  C   -0.411807
    70  H    0.090829
    71  H    0.085648
    72  H    0.086408
    73  C   -0.450211
    74  H    0.102792
    75  H    0.097035
    76  H    0.093322
 Sum of ESP charges =   0.00000

 Normal termination of Gaussian 09 at Thu Apr 27 15:25:53 2017.
