 Gaussian 09, Revision D.01,
 Gaussian 09:  EM64L-G09RevD.01 24-Apr-2013

 ----------------------------------------------------------------------
 #P HF/6-31G* SCF(Conver=6) NoSymm Test Pop=mk IOp(6/33=2) GFInput GFPr
 int
 ----------------------------------------------------------------------

 ----------------------------------------------
 MEP - Input generated by R.E.D.-III.x MOLECULE
 ----------------------------------------------
 Symbolic Z-matrix:
 Charge =  0 Multiplicity = 1

                          Input orientation:
 ---------------------------------------------------------------------
 Center     Atomic      Atomic             Coordinates (Angstroms)
 Number     Number       Type             X           Y           Z
 ---------------------------------------------------------------------
      1          6           0        0.998680   -0.898528   -1.688588
      2          1           0        1.155271    0.067860   -2.183275
      3          6           0        2.210539   -1.801385   -1.959650
      4          1           0        2.351832   -1.918286   -3.038765
      5          1           0        1.974823   -2.801575   -1.561068
      6          6           0        3.483952   -1.288690   -1.314591
      7          6           0        3.422450   -0.919339    0.171736
      8          6           0        2.127194   -0.085161    0.421436
      9          1           0        2.277413    0.918534    0.000000
     10          1           0        1.983925    0.049567    1.498535
     11          6           0        0.844234   -0.673793   -0.185249
     12          1           0        0.594642   -1.631110    0.296078
     13          1           0        0.000000    0.000000    0.000000
     14          6           0        4.608708   -1.182633   -2.034869
     15          1           0        4.592836   -1.432157   -3.096369
     16          6           0        5.945119   -0.750917   -1.507038
     17          1           0        6.236024    0.199876   -1.982747
     18          6           0        6.009757   -0.607591    0.021107
     19          1           0        6.167143   -1.613427    0.425557
     20          6           0        4.664031   -0.038479    0.551455
     21          1           0        4.514174    0.920629    0.028268
     22          6           0        4.743927    0.288296    2.060347
     23          1           0        4.776441   -0.641239    2.638980
     24          1           0        3.830798    0.806645    2.372801
     25          6           0        5.953828    1.158327    2.453399
     26          1           0        5.850502    2.153841    1.997693
     27          1           0        5.934550    1.309423    3.537457
     28          6           0        7.285069    0.537281    1.987220
     29          6           0        7.163071    0.315984    0.451496
     30          1           0        6.917355    1.310653    0.039200
     31          6           0        8.599143    0.000000    0.000000
     32          1           0        8.762882    0.224537   -1.057144
     33          1           0        8.817694   -1.065721    0.121968
     34          6           0        9.480417    0.870137    0.937432
     35          1           0       10.261388    0.261059    1.407878
     36          1           0        9.999844    1.659527    0.384475
     37          6           0        8.537876    1.479358    2.026003
     38          1           0        8.184544    2.456022    1.663041
     39          6           0        7.572562   -0.774677    2.752179
     40          1           0        6.807026   -1.534993    2.578329
     41          1           0        8.531882   -1.214465    2.464472
     42          1           0        7.606643   -0.591486    3.831464
     43          6           0        9.266678    1.724750    3.370769
     44          1           0        9.627826    0.749661    3.729033
     45          6           0        8.363022    2.309360    4.472848
     46          1           0        7.824105    3.200166    4.131151
     47          1           0        8.961558    2.598404    5.344972
     48          1           0        7.618147    1.587349    4.817043
     49          6           0        3.368300   -2.229748    1.001490
     50          1           0        3.178192   -2.023027    2.059181
     51          1           0        2.569219   -2.890492    0.654295
     52          1           0        4.306042   -2.786947    0.920813
     53          8           0        6.993411   -1.603496   -2.033706
     54          8           0        6.830509   -2.949079   -1.495821
     55          1           0        6.430343   -3.404573   -2.254572
     56          8           0       -0.190943   -1.412162   -2.293490
     57          1           0       -0.409108   -2.258668   -1.878724
     58          6           0       10.538438    2.597886    3.196592
     59          1           0       11.045966    2.641452    4.171017
     60          1           0       11.237823    2.090897    2.520242
     61          6           0       10.324430    4.035983    2.695104
     62          1           0        9.847456    4.014991    1.707615
     63          1           0        9.630754    4.560312    3.363432
     64          6           0       11.646930    4.815922    2.610492
     65          1           0       12.336705    4.267279    1.952770
     66          1           0       12.116605    4.818651    3.604874
     67          6           0       11.559957    6.277081    2.111227
     68          1           0       12.590995    6.660716    2.121755
     69          6           0       11.056001    6.379902    0.662030
     70          1           0       10.006905    6.074120    0.575792
     71          1           0       11.126109    7.411034    0.297122
     72          1           0       11.645497    5.746637   -0.011436
     73          6           0       10.735107    7.175592    3.047718
     74          1           0        9.675090    6.896506    3.045875
     75          1           0       10.796904    8.224584    2.736107
     76          1           0       11.095700    7.112480    4.081214
 ---------------------------------------------------------------------

 SCF Done:  E(RHF) =  -1273.68309191     A.U. after    9 cycles

 Alpha  occ. eigenvalues --  -20.62438 -20.62304 -20.56049 -11.28763 -11.28183
 Alpha  occ. eigenvalues --  -11.24919 -11.24416 -11.23231 -11.23150 -11.22952
 Alpha  occ. eigenvalues --  -11.22670 -11.22656 -11.22612 -11.22413 -11.22330
 Alpha  occ. eigenvalues --  -11.22174 -11.22038 -11.21930 -11.21733 -11.21635
 Alpha  occ. eigenvalues --  -11.21516 -11.21373 -11.21244 -11.21184 -11.20942
 Alpha  occ. eigenvalues --  -11.20939 -11.20885 -11.20817 -11.20764 -11.20394
 Alpha  occ. eigenvalues --   -1.45696  -1.35425  -1.22129  -1.15860  -1.13885
 Alpha  occ. eigenvalues --   -1.09522  -1.08011  -1.05897  -1.05652  -1.03049
 Alpha  occ. eigenvalues --   -1.01623  -0.99406  -0.97847  -0.96308  -0.92797
 Alpha  occ. eigenvalues --   -0.92300  -0.92125  -0.90824  -0.90487  -0.86036
 Alpha  occ. eigenvalues --   -0.84433  -0.83062  -0.82894  -0.78965  -0.78458
 Alpha  occ. eigenvalues --   -0.76812  -0.74597  -0.73777  -0.71658  -0.69407
 Alpha  occ. eigenvalues --   -0.69287  -0.67125  -0.65615  -0.65359  -0.64308
 Alpha  occ. eigenvalues --   -0.63899  -0.63386  -0.62818  -0.62062  -0.61907
 Alpha  occ. eigenvalues --   -0.60906  -0.60138  -0.59720  -0.58905  -0.58438
 Alpha  occ. eigenvalues --   -0.57854  -0.57229  -0.56509  -0.56091  -0.55578
 Alpha  occ. eigenvalues --   -0.55336  -0.54673  -0.54340  -0.53984  -0.53502
 Alpha  occ. eigenvalues --   -0.53300  -0.52841  -0.52685  -0.52186  -0.51720
 Alpha  occ. eigenvalues --   -0.51439  -0.51215  -0.50195  -0.50008  -0.48482
 Alpha  occ. eigenvalues --   -0.48345  -0.47926  -0.47431  -0.47298  -0.46903
 Alpha  occ. eigenvalues --   -0.46722  -0.46230  -0.45940  -0.45228  -0.44976
 Alpha  occ. eigenvalues --   -0.44701  -0.44438  -0.43433  -0.43283  -0.42852
 Alpha  occ. eigenvalues --   -0.42670  -0.42248  -0.41561  -0.40421  -0.38674
 Alpha  occ. eigenvalues --   -0.34423
 Alpha virt. eigenvalues --    0.16139   0.20687   0.21103   0.21524   0.22257
 Alpha virt. eigenvalues --    0.22754   0.22970   0.24226   0.24680   0.25195
 Alpha virt. eigenvalues --    0.25668   0.26134   0.26369   0.27043   0.27323

 Mulliken charges:
               1
     1  C    0.193923
     2  H    0.173812
     3  C   -0.368284
     4  H    0.191935
     5  H    0.155414
     6  C    0.083393
     7  C   -0.042123
     8  C   -0.327314
     9  H    0.165832
    10  H    0.174433
    11  C   -0.341365
    12  H    0.144959
    13  H    0.184005
    14  C   -0.279640
    15  H    0.185815
    16  C    0.190672
    17  H    0.186659
    18  C   -0.182450
    19  H    0.208698
    20  C   -0.168247
    21  H    0.156489
    22  C   -0.327914
    23  H    0.165126
    24  H    0.166848
    25  C   -0.297564
    26  H    0.151206
    27  H    0.164891
    28  C   -0.029089
    29  C   -0.168674
    30  H    0.146713
    31  C   -0.306260
    32  H    0.172550
    33  H    0.178578
    34  C   -0.338794
    35  H    0.160719
    36  H    0.164428
    37  C   -0.140954
    38  H    0.154903
    39  C   -0.488787
    40  H    0.163372
    41  H    0.170154
    42  H    0.160695
    43  C   -0.147266
    44  H    0.157621
    45  C   -0.486203
    46  H    0.156221
    47  H    0.157439
    48  H    0.160985
    49  C   -0.480736
    50  H    0.165839
    51  H    0.159960
    52  H    0.180293
    53  O   -0.393204
    54  O   -0.470594
    55  H    0.458929
    56  O   -0.759091
    57  H    0.428504
    58  C   -0.309271
    59  H    0.152054
    60  H    0.162089
    61  C   -0.321393
    62  H    0.159320
    63  H    0.159955
    64  C   -0.300145
    65  H    0.151661
    66  H    0.151040
    67  C   -0.146035
    68  H    0.155254
    69  C   -0.476164
    70  H    0.154863
    71  H    0.158099
    72  H    0.157194
    73  C   -0.476011
    74  H    0.155315
    75  H    0.157956
    76  H    0.156761
 Sum of Mulliken charges =   0.00000

 Dipole moment (field-independent basis, Debye):
    X=             -1.1497    Y=             -0.5729    Z=              1.1696  Tot=              1.7373
 Quadrupole moment (field-independent basis, Debye-Ang):
   XX=           -215.3771   YY=           -185.1243   ZZ=           -193.4804
   XY=              5.7614   XZ=             -0.5209   YZ=              1.6752

 ESP charges:
               1
     1  C    0.544222
     2  H    0.035667
     3  C   -0.440908
     4  H    0.128314
     5  H    0.127506
     6  C    0.175044
     7  C    0.166182
     8  C   -0.002620
     9  H    0.009842
    10  H    0.061566
    11  C   -0.354469
    12  H    0.086186
    13  H    0.091456
    14  C   -0.561763
    15  H    0.209116
    16  C    0.491847
    17  H    0.039796
    18  C   -0.277310
    19  H    0.144938
    20  C   -0.173728
    21  H    0.056735
    22  C    0.041931
    23  H    0.017972
    24  H    0.004109
    25  C   -0.232401
    26  H    0.028721
    27  H    0.046661
    28  C    0.457777
    29  C    0.282340
    30  H   -0.058734
    31  C   -0.364893
    32  H    0.089123
    33  H    0.121650
    34  C   -0.096279
    35  H    0.030513
    36  H    0.050705
    37  C    0.110847
    38  H   -0.080234
    39  C   -0.538409
    40  H    0.115877
    41  H    0.101550
    42  H    0.109864
    43  C    0.139728
    44  H    0.006193
    45  C   -0.412007
    46  H    0.075387
    47  H    0.105868
    48  H    0.090604
    49  C   -0.373824
    50  H    0.089913
    51  H    0.097984
    52  H    0.107406
    53  O   -0.337285
    54  O   -0.470150
    55  H    0.460525
    56  O   -0.741519
    57  H    0.418412
    58  C   -0.262490
    59  H    0.066012
    60  H    0.031868
    61  C    0.287549
    62  H   -0.022130
    63  H   -0.015242
    64  C   -0.391752
    65  H    0.075935
    66  H    0.070665
    67  C    0.440811
    68  H   -0.043526
    69  C   -0.425502
    70  H    0.093392
    71  H    0.094205
    72  H    0.091466
    73  C   -0.412844
    74  H    0.086283
    75  H    0.091203
    76  H    0.090553
 Sum of ESP charges =   0.00000

 Normal termination of Gaussian 09 at Thu Apr 27 16:11:57 2017.
