 Gaussian 09, Revision D.01,
 Gaussian 09:  EM64L-G09RevD.01 24-Apr-2013

 ----------------------------------------------------------------------
 #P HF/6-31G* SCF(Conver=6) NoSymm Test Pop=mk IOp(6/33=2) GFInput GFPr
 int
 ----------------------------------------------------------------------

 ----------------------------------------------
 MEP - Input generated by R.E.D.-III.x MOLECULE
 ----------------------------------------------
 Symbolic Z-matrix:
 Charge =  0 Multiplicity = 1

                          Input orientation:
 ---------------------------------------------------------------------
 Center     Atomic      Atomic             Coordinates (Angstroms)
 Number     Number       Type             X           Y           Z
 ---------------------------------------------------------------------
      1          6           0        0.996877   -0.885357   -1.696579
      2          1           0        1.148420    0.084473   -2.186080
      3          6           0        2.211361   -1.782039   -1.976420
      4          1           0        2.350261   -1.891624   -3.056603
      5          1           0        1.980449   -2.785593   -1.583548
      6          6           0        3.484532   -1.268688   -1.331532
      7          6           0        3.425689   -0.909625    0.157498
      8          6           0        2.128490   -0.081044    0.415560
      9          1           0        2.274529    0.925721    0.000000
     10          1           0        1.987206    0.046524    1.493777
     11          6           0        0.845848   -0.670010   -0.191502
     12          1           0        0.600493   -1.630943    0.284772
     13          1           0        0.000000    0.000000    0.000000
     14          6           0        4.606844   -1.153433   -2.054227
     15          1           0        4.588880   -1.395806   -3.117343
     16          6           0        5.943142   -0.720683   -1.526895
     17          1           0        6.228413    0.236038   -1.994093
     18          6           0        6.011529   -0.592432    0.002386
     19          1           0        6.167307   -1.603009    0.394683
     20          6           0        4.665845   -0.028051    0.540504
     21          1           0        4.512998    0.933814    0.023185
     22          6           0        4.745018    0.291900    2.051631
     23          1           0        4.786157   -0.639137    2.626953
     24          1           0        3.828458    0.802437    2.366610
     25          6           0        5.949742    1.170170    2.441154
     26          1           0        5.836250    2.163028    1.983602
     27          1           0        5.938630    1.321791    3.526942
     28          6           0        7.280976    0.552514    1.975394
     29          6           0        7.167018    0.326210    0.437647
     30          1           0        6.927732    1.318760    0.017790
     31          6           0        8.608234    0.000000    0.000000
     32          1           0        8.782765    0.223512   -1.055545
     33          1           0        8.816248   -1.067633    0.123957
     34          6           0        9.488898    0.863370    0.947042
     35          1           0       10.250279    0.246889    1.435826
     36          1           0       10.032030    1.643916    0.402524
     37          6           0        8.524998    1.507172    1.992789
     38          1           0        8.158365    2.435506    1.532695
     39          6           0        7.545176   -0.771629    2.729973
     40          1           0        6.829247   -1.550429    2.455463
     41          1           0        8.542541   -1.170082    2.529257
     42          1           0        7.459581   -0.624259    3.810460
     43          6           0        9.255435    1.969738    3.286318
     44          1           0       10.099194    2.564847    2.904963
     45          6           0        9.890433    0.868513    4.159484
     46          1           0        9.146563    0.342037    4.764735
     47          1           0       10.609592    1.319535    4.852752
     48          1           0       10.431414    0.122013    3.570876
     49          6           0        3.377360   -2.225602    0.978835
     50          1           0        3.191927   -2.026059    2.038733
     51          1           0        2.577652   -2.885283    0.631020
     52          1           0        4.315547   -2.780898    0.890275
     53          8           0        6.993586   -1.563163   -2.065061
     54          8           0        6.837299   -2.915196   -1.541360
     55          1           0        6.441048   -3.364900   -2.305580
     56          8           0       -0.192567   -1.399900   -2.301055
     57          1           0       -0.405920   -2.249988   -1.891137
     58          6           0        8.426269    2.909067    4.196561
     59          1           0        7.570671    2.352502    4.599855
     60          1           0        9.051016    3.158467    5.066614
     61          6           0        7.917900    4.230777    3.588011
     62          1           0        7.243642    4.024216    2.749176
     63          1           0        7.303342    4.726424    4.350272
     64          6           0        9.036709    5.184928    3.137782
     65          1           0        9.609397    4.717571    2.325710
     66          1           0        9.743364    5.314189    3.970908
     67          6           0        8.590619    6.587014    2.658539
     68          1           0        9.512027    7.111726    2.365476
     69          6           0        7.689937    6.527964    1.413490
     70          1           0        6.719163    6.071345    1.638615
     71          1           0        7.495198    7.534109    1.024931
     72          1           0        8.156328    5.944860    0.610613
     73          6           0        7.936153    7.418500    3.774405
     74          1           0        6.972733    6.996975    4.083410
     75          1           0        7.749255    8.444166    3.436257
     76          1           0        8.578374    7.471361    4.661419
 ---------------------------------------------------------------------

 SCF Done:  E(RHF) =  -1273.67548942     A.U. after    9 cycles

 Alpha  occ. eigenvalues --  -20.62442 -20.62306 -20.56050 -11.28768 -11.28185
 Alpha  occ. eigenvalues --  -11.24931 -11.24416 -11.23269 -11.23151 -11.22959
 Alpha  occ. eigenvalues --  -11.22673 -11.22660 -11.22650 -11.22541 -11.22337
 Alpha  occ. eigenvalues --  -11.22270 -11.22043 -11.21957 -11.21798 -11.21651
 Alpha  occ. eigenvalues --  -11.21601 -11.21464 -11.21416 -11.21364 -11.21084
 Alpha  occ. eigenvalues --  -11.21022 -11.20833 -11.20667 -11.20618 -11.20426
 Alpha  occ. eigenvalues --   -1.45697  -1.35427  -1.22136  -1.15855  -1.13840
 Alpha  occ. eigenvalues --   -1.09529  -1.07991  -1.05894  -1.05649  -1.03073
 Alpha  occ. eigenvalues --   -1.01625  -0.99458  -0.97836  -0.96341  -0.92429
 Alpha  occ. eigenvalues --   -0.92410  -0.92329  -0.91395  -0.90440  -0.86039
 Alpha  occ. eigenvalues --   -0.84178  -0.83104  -0.82858  -0.79161  -0.78534
 Alpha  occ. eigenvalues --   -0.76862  -0.75033  -0.73758  -0.71361  -0.69385
 Alpha  occ. eigenvalues --   -0.69036  -0.67130  -0.65662  -0.65026  -0.64528
 Alpha  occ. eigenvalues --   -0.63778  -0.63042  -0.62847  -0.62423  -0.61739
 Alpha  occ. eigenvalues --   -0.61078  -0.60232  -0.59132  -0.59021  -0.58653
 Alpha  occ. eigenvalues --   -0.57925  -0.57446  -0.56138  -0.56088  -0.55912
 Alpha  occ. eigenvalues --   -0.55587  -0.54806  -0.54443  -0.54062  -0.53744
 Alpha  occ. eigenvalues --   -0.53403  -0.53062  -0.52754  -0.52112  -0.51708
 Alpha  occ. eigenvalues --   -0.51396  -0.50595  -0.50361  -0.49790  -0.48623
 Alpha  occ. eigenvalues --   -0.48340  -0.48145  -0.47794  -0.47179  -0.47008
 Alpha  occ. eigenvalues --   -0.46849  -0.46247  -0.46030  -0.45299  -0.45040
 Alpha  occ. eigenvalues --   -0.44768  -0.44350  -0.43363  -0.43154  -0.42739
 Alpha  occ. eigenvalues --   -0.42578  -0.42012  -0.41639  -0.40355  -0.38582
 Alpha  occ. eigenvalues --   -0.34422
 Alpha virt. eigenvalues --    0.16138   0.20138   0.20879   0.21530   0.22171
 Alpha virt. eigenvalues --    0.22561   0.23052   0.23843   0.24811   0.25069
 Alpha virt. eigenvalues --    0.25653   0.25901   0.26258   0.26996   0.27081

 Mulliken charges:
               1
     1  C    0.193895
     2  H    0.173825
     3  C   -0.368315
     4  H    0.191924
     5  H    0.155467
     6  C    0.083399
     7  C   -0.042302
     8  C   -0.327369
     9  H    0.165811
    10  H    0.174390
    11  C   -0.341310
    12  H    0.144980
    13  H    0.184008
    14  C   -0.279434
    15  H    0.185765
    16  C    0.192013
    17  H    0.186511
    18  C   -0.183756
    19  H    0.209003
    20  C   -0.168198
    21  H    0.156367
    22  C   -0.327776
    23  H    0.166594
    24  H    0.166877
    25  C   -0.301615
    26  H    0.152955
    27  H    0.162945
    28  C   -0.023336
    29  C   -0.171333
    30  H    0.146792
    31  C   -0.305788
    32  H    0.173133
    33  H    0.178351
    34  C   -0.331754
    35  H    0.160780
    36  H    0.160858
    37  C   -0.154422
    38  H    0.157161
    39  C   -0.485803
    40  H    0.162812
    41  H    0.170676
    42  H    0.159418
    43  C   -0.147367
    44  H    0.158157
    45  C   -0.481448
    46  H    0.155627
    47  H    0.157515
    48  H    0.161870
    49  C   -0.480484
    50  H    0.165939
    51  H    0.159977
    52  H    0.180159
    53  O   -0.393424
    54  O   -0.470526
    55  H    0.458954
    56  O   -0.759071
    57  H    0.428507
    58  C   -0.303056
    59  H    0.154801
    60  H    0.151979
    61  C   -0.321390
    62  H    0.160925
    63  H    0.158894
    64  C   -0.305328
    65  H    0.156050
    66  H    0.150678
    67  C   -0.145720
    68  H    0.155652
    69  C   -0.476958
    70  H    0.155017
    71  H    0.158884
    72  H    0.156374
    73  C   -0.476321
    74  H    0.155488
    75  H    0.158311
    76  H    0.157136
 Sum of Mulliken charges =   0.00000

 Dipole moment (field-independent basis, Debye):
    X=             -1.1667    Y=             -0.4408    Z=              1.1259  Tot=              1.6802
 Quadrupole moment (field-independent basis, Debye-Ang):
   XX=           -216.0076   YY=           -184.4179   ZZ=           -193.7284
   XY=              7.3749   XZ=             -1.1309   YZ=              2.2166

 ESP charges:
               1
     1  C    0.547662
     2  H    0.035627
     3  C   -0.433447
     4  H    0.126391
     5  H    0.125945
     6  C    0.152303
     7  C    0.216269
     8  C   -0.012457
     9  H    0.015927
    10  H    0.063289
    11  C   -0.370402
    12  H    0.090729
    13  H    0.096420
    14  C   -0.550353
    15  H    0.210906
    16  C    0.442313
    17  H    0.051472
    18  C   -0.110822
    19  H    0.109351
    20  C   -0.289086
    21  H    0.077735
    22  C    0.017850
    23  H    0.032180
    24  H    0.022093
    25  C   -0.335217
    26  H    0.078409
    27  H    0.060742
    28  C    0.682107
    29  C    0.152470
    30  H   -0.081224
    31  C   -0.090747
    32  H    0.039488
    33  H    0.053850
    34  C   -0.298122
    35  H    0.075412
    36  H    0.081957
    37  C   -0.186476
    38  H    0.065126
    39  C   -0.589792
    40  H    0.112386
    41  H    0.127774
    42  H    0.118194
    43  C    0.422718
    44  H   -0.025273
    45  C   -0.537809
    46  H    0.117867
    47  H    0.112098
    48  H    0.125176
    49  C   -0.378982
    50  H    0.090887
    51  H    0.097161
    52  H    0.108636
    53  O   -0.340129
    54  O   -0.473285
    55  H    0.463052
    56  O   -0.741933
    57  H    0.418492
    58  C   -0.396031
    59  H    0.061672
    60  H    0.099991
    61  C    0.190584
    62  H   -0.077554
    63  H    0.004300
    64  C   -0.258813
    65  H    0.035784
    66  H    0.043017
    67  C    0.464129
    68  H   -0.058808
    69  C   -0.422536
    70  H    0.099934
    71  H    0.090241
    72  H    0.086821
    73  C   -0.441377
    74  H    0.096950
    75  H    0.096630
    76  H    0.092159
 Sum of ESP charges =   0.00000

 Normal termination of Gaussian 09 at Thu Apr 27 15:37:04 2017.
