 Gaussian 09, Revision D.01,
 Gaussian 09:  EM64L-G09RevD.01 24-Apr-2013

 ----------------------------------------------------------------------
 #P HF/6-31G* SCF(Conver=6) NoSymm Test Pop=mk IOp(6/33=2) GFInput GFPr
 int
 ----------------------------------------------------------------------

 ----------------------------------------------
 MEP - Input generated by R.E.D.-III.x MOLECULE
 ----------------------------------------------
 Symbolic Z-matrix:
 Charge =  0 Multiplicity = 1

                          Input orientation:
 ---------------------------------------------------------------------
 Center     Atomic      Atomic             Coordinates (Angstroms)
 Number     Number       Type             X           Y           Z
 ---------------------------------------------------------------------
      1          6           0       -1.011904    1.984130    1.682179
      2          1           0       -0.991589    1.007525    2.181262
      3          6           0        0.314437    2.709467    1.948106
      4          1           0        0.474287    2.808784    3.026056
      5          1           0        0.221151    3.732121    1.547374
      6          6           0        1.501685    2.018397    1.303946
      7          6           0        1.384162    1.663527   -0.181652
      8          6           0       -0.012640    1.012411   -0.427225
      9          1           0        0.000000    0.000000    0.000000
     10          1           0       -0.176674    0.893145   -1.503469
     11          6           0       -1.200114    1.775424    0.179857
     12          1           0       -1.316833    2.755506   -0.305925
     13          1           0       -2.130013    1.224026    0.000000
     14          6           0        2.599879    1.758205    2.025436
     15          1           0        2.628053    2.023405    3.079953
     16          6           0        3.864636    1.149856    1.495349
     17          1           0        4.048684    0.178008    1.979150
     18          6           0        3.905036    0.994824   -0.033839
     19          1           0        4.207903    1.967494   -0.443436
     20          6           0        2.492618    0.625171   -0.567392
     21          1           0        2.213557   -0.308824   -0.052934
     22          6           0        2.535690    0.306997   -2.079266
     23          1           0        2.711223    1.228150   -2.645531
     24          1           0        1.557361   -0.064310   -2.402965
     25          6           0        3.603543   -0.730231   -2.476876
     26          1           0        3.350531   -1.703258   -2.031423
     27          1           0        3.565877   -0.866964   -3.561950
     28          6           0        5.011848   -0.321274   -2.000023
     29          6           0        4.910429   -0.089680   -0.464079
     30          1           0        4.513491   -1.036308   -0.058654
     31          6           0        6.372413    0.000000    0.000000
     32          1           0        6.486876   -0.245738    1.060339
     33          1           0        6.758639    1.016284   -0.127220
     34          6           0        7.112637   -1.008950   -0.918612
     35          1           0        8.003028   -0.548465   -1.363233
     36          1           0        7.465344   -1.875986   -0.351972
     37          6           0        6.106989   -1.444488   -2.037746
     38          1           0        5.606017   -2.367176   -1.703622
     39          6           0        5.503994    0.935658   -2.753485
     40          1           0        4.859342    1.801863   -2.584552
     41          1           0        6.515401    1.223689   -2.451805
     42          1           0        5.525001    0.755375   -3.833181
     43          6           0        6.816155   -1.782925   -3.375146
     44          1           0        7.377907   -0.890871   -3.692283
     45          6           0        5.841408   -2.156340   -4.505849
     46          1           0        5.200796   -2.996822   -4.209964
     47          1           0        6.380445   -2.452993   -5.410341
     48          1           0        5.191287   -1.323759   -4.782993
     49          6           0        1.504153    2.968997   -1.012616
     50          1           0        1.276114    2.792464   -2.068443
     51          1           0        0.809653    3.734435   -0.656754
     52          1           0        2.510646    3.392048   -0.942427
     53          8           0        4.991885    2.004914    1.813685
     54          8           0        5.178281    1.976521    3.261002
     55          1           0        6.042418    1.536217    3.315003
     56          8           0       -2.119115    2.660918    2.283865
     57          1           0       -2.193117    3.542380    1.891775
     58          6           0        7.848763   -2.917797   -3.159224
     59          1           0        8.472281   -2.678901   -2.289679
     60          1           0        7.303963   -3.837071   -2.899333
     61          6           0        8.789024   -3.181149   -4.347910
     62          1           0        8.228259   -3.572718   -5.204297
     63          1           0        9.211095   -2.221719   -4.679394
     64          6           0        9.959830   -4.128266   -4.025795
     65          1           0       10.556901   -3.683318   -3.216586
     66          1           0       10.624169   -4.175935   -4.901417
     67          6           0        9.592434   -5.572103   -3.621654
     68          1           0        8.943540   -5.526780   -2.735208
     69          6           0        8.827317   -6.314843   -4.728537
     70          1           0        9.424972   -6.365992   -5.648039
     71          1           0        8.598960   -7.342596   -4.424079
     72          1           0        7.878775   -5.826615   -4.974677
     73          6           0       10.857803   -6.350018   -3.226151
     74          1           0       11.547152   -6.433615   -4.076250
     75          1           0       10.613793   -7.366122   -2.895684
     76          1           0       11.394728   -5.851853   -2.410686
 ---------------------------------------------------------------------

 SCF Done:  E(RHF) =  -1273.68334003     A.U. after    9 cycles

 Alpha  occ. eigenvalues --  -20.62432 -20.62314 -20.55610 -11.28598 -11.27712
 Alpha  occ. eigenvalues --  -11.24654 -11.23637 -11.23339 -11.23135 -11.23068
 Alpha  occ. eigenvalues --  -11.22710 -11.22620 -11.22531 -11.22503 -11.22363
 Alpha  occ. eigenvalues --  -11.22311 -11.22257 -11.22087 -11.21874 -11.21858
 Alpha  occ. eigenvalues --  -11.21819 -11.21709 -11.21649 -11.21618 -11.21545
 Alpha  occ. eigenvalues --  -11.21449 -11.21235 -11.21150 -11.21139 -11.21091
 Alpha  occ. eigenvalues --   -1.45725  -1.34974  -1.22357  -1.15876  -1.13945
 Alpha  occ. eigenvalues --   -1.09872  -1.08182  -1.05943  -1.05480  -1.03193
 Alpha  occ. eigenvalues --   -1.01644  -0.99642  -0.98038  -0.96242  -0.93173
 Alpha  occ. eigenvalues --   -0.92515  -0.92164  -0.91160  -0.90814  -0.85858
 Alpha  occ. eigenvalues --   -0.84141  -0.82964  -0.82576  -0.79477  -0.78293
 Alpha  occ. eigenvalues --   -0.77078  -0.75301  -0.74323  -0.72494  -0.70858
 Alpha  occ. eigenvalues --   -0.67864  -0.66611  -0.66071  -0.65187  -0.64858
 Alpha  occ. eigenvalues --   -0.64021  -0.63383  -0.62459  -0.61781  -0.61590
 Alpha  occ. eigenvalues --   -0.60929  -0.60538  -0.59803  -0.59087  -0.58422
 Alpha  occ. eigenvalues --   -0.57802  -0.57352  -0.56682  -0.56259  -0.55755
 Alpha  occ. eigenvalues --   -0.55554  -0.54988  -0.54372  -0.54118  -0.53820
 Alpha  occ. eigenvalues --   -0.53587  -0.53319  -0.53050  -0.52663  -0.52239
 Alpha  occ. eigenvalues --   -0.50912  -0.50429  -0.50087  -0.49474  -0.49197
 Alpha  occ. eigenvalues --   -0.48461  -0.48132  -0.47981  -0.47593  -0.47156
 Alpha  occ. eigenvalues --   -0.46735  -0.46158  -0.45743  -0.45246  -0.44950
 Alpha  occ. eigenvalues --   -0.44908  -0.44631  -0.43949  -0.43729  -0.43576
 Alpha  occ. eigenvalues --   -0.42868  -0.42323  -0.41891  -0.40717  -0.38973
 Alpha  occ. eigenvalues --   -0.33832
 Alpha virt. eigenvalues --    0.17010   0.20469   0.20995   0.21576   0.21960
 Alpha virt. eigenvalues --    0.22736   0.22950   0.24081   0.24771   0.25189
 Alpha virt. eigenvalues --    0.25380   0.25877   0.26199   0.26726   0.27137

 Mulliken charges:
               1
     1  C    0.193721
     2  H    0.172295
     3  C   -0.366723
     4  H    0.195115
     5  H    0.154603
     6  C    0.069073
     7  C   -0.041027
     8  C   -0.326230
     9  H    0.164420
    10  H    0.171767
    11  C   -0.339483
    12  H    0.144643
    13  H    0.182359
    14  C   -0.249907
    15  H    0.212639
    16  C    0.189690
    17  H    0.166349
    18  C   -0.189204
    19  H    0.191666
    20  C   -0.164826
    21  H    0.158635
    22  C   -0.328705
    23  H    0.165598
    24  H    0.168821
    25  C   -0.298270
    26  H    0.152467
    27  H    0.165964
    28  C   -0.031565
    29  C   -0.164026
    30  H    0.151216
    31  C   -0.301987
    32  H    0.150999
    33  H    0.175023
    34  C   -0.339055
    35  H    0.161347
    36  H    0.166296
    37  C   -0.134642
    38  H    0.152203
    39  C   -0.488305
    40  H    0.164246
    41  H    0.167540
    42  H    0.163762
    43  C   -0.149440
    44  H    0.153398
    45  C   -0.486165
    46  H    0.152563
    47  H    0.165525
    48  H    0.162206
    49  C   -0.478073
    50  H    0.163852
    51  H    0.163455
    52  H    0.174229
    53  O   -0.394757
    54  O   -0.469509
    55  H    0.460473
    56  O   -0.759747
    57  H    0.428143
    58  C   -0.311870
    59  H    0.164813
    60  H    0.151272
    61  C   -0.313206
    62  H    0.159153
    63  H    0.154731
    64  C   -0.298503
    65  H    0.151333
    66  H    0.151308
    67  C   -0.151867
    68  H    0.156483
    69  C   -0.476866
    70  H    0.152343
    71  H    0.158534
    72  H    0.161240
    73  C   -0.471942
    74  H    0.152631
    75  H    0.158209
    76  H    0.157549
 Sum of Mulliken charges =   0.00000

 Dipole moment (field-independent basis, Debye):
    X=              1.0765    Y=             -1.1236    Z=             -2.1367  Tot=              2.6432
 Quadrupole moment (field-independent basis, Debye-Ang):
   XX=           -190.3581   YY=           -192.2791   ZZ=           -196.5730
   XY=             -7.9821   XZ=              4.9662   YZ=             -8.7468

 ESP charges:
               1
     1  C    0.518879
     2  H    0.046799
     3  C   -0.478755
     4  H    0.151887
     5  H    0.155424
     6  C   -0.089476
     7  C    0.458631
     8  C   -0.080508
     9  H    0.026595
    10  H    0.059945
    11  C   -0.341740
    12  H    0.082925
    13  H    0.096639
    14  C   -0.279532
    15  H    0.186064
    16  C    0.290720
    17  H   -0.000892
    18  C    0.161680
    19  H    0.006665
    20  C   -0.403802
    21  H    0.059258
    22  C    0.143024
    23  H   -0.013312
    24  H   -0.011474
    25  C   -0.275749
    26  H    0.027822
    27  H    0.038749
    28  C    0.672831
    29  C    0.025584
    30  H   -0.016591
    31  C   -0.220736
    32  H    0.071797
    33  H    0.034068
    34  C   -0.085616
    35  H    0.042512
    36  H    0.033340
    37  C   -0.117382
    38  H   -0.012020
    39  C   -0.632349
    40  H    0.128544
    41  H    0.138847
    42  H    0.125851
    43  C    0.126969
    44  H   -0.003698
    45  C   -0.396196
    46  H    0.085017
    47  H    0.087491
    48  H    0.092886
    49  C   -0.339005
    50  H    0.060494
    51  H    0.077792
    52  H    0.094444
    53  O   -0.289766
    54  O   -0.446075
    55  H    0.427231
    56  O   -0.733882
    57  H    0.417067
    58  C    0.017843
    59  H   -0.011710
    60  H    0.018475
    61  C    0.000100
    62  H    0.026115
    63  H    0.014523
    64  C   -0.309677
    65  H    0.069918
    66  H    0.068000
    67  C    0.525785
    68  H   -0.071350
    69  C   -0.449640
    70  H    0.102302
    71  H    0.092860
    72  H    0.096637
    73  C   -0.502623
    74  H    0.111313
    75  H    0.114546
    76  H    0.100666
 Sum of ESP charges =   0.00000

 Normal termination of Gaussian 09 at Thu Apr 27 15:01:26 2017.
