 Gaussian 09, Revision D.01,
 Gaussian 09:  EM64L-G09RevD.01 24-Apr-2013

 ----------------------------------------------------------------------
 #P HF/6-31G* SCF(Conver=6) NoSymm Test Pop=mk IOp(6/33=2) GFInput GFPr
 int
 ----------------------------------------------------------------------

 ----------------------------------------------
 MEP - Input generated by R.E.D.-III.x MOLECULE
 ----------------------------------------------
 Symbolic Z-matrix:
 Charge =  0 Multiplicity = 1

                          Input orientation:
 ---------------------------------------------------------------------
 Center     Atomic      Atomic             Coordinates (Angstroms)
 Number     Number       Type             X           Y           Z
 ---------------------------------------------------------------------
      1          6           0       -1.010799    1.983267    1.684256
      2          1           0       -0.992056    1.005925    2.181939
      3          6           0        0.316222    2.706560    1.952385
      4          1           0        0.475305    2.804139    3.030600
      5          1           0        0.224719    3.729896    1.552934
      6          6           0        1.502894    2.014524    1.308223
      7          6           0        1.386185    1.662341   -0.178159
      8          6           0       -0.011121    1.013080   -0.425693
      9          1           0        0.000000    0.000000    0.000000
     10          1           0       -0.174589    0.895805   -1.502180
     11          6           0       -1.197977    1.776950    0.181449
     12          1           0       -1.312656    2.757958   -0.302990
     13          1           0       -2.128581    1.227268    0.000000
     14          6           0        2.599640    1.750471    2.030453
     15          1           0        2.627239    2.013389    3.085555
     16          6           0        3.863595    1.140316    1.500301
     17          1           0        4.043277    0.165306    1.979429
     18          6           0        3.906456    0.992522   -0.029547
     19          1           0        4.208619    1.967386   -0.434286
     20          6           0        2.494093    0.623764   -0.565169
     21          1           0        2.214599   -0.310677   -0.051669
     22          6           0        2.535193    0.306951   -2.077798
     23          1           0        2.706109    1.229054   -2.643728
     24          1           0        1.557320   -0.067408   -2.399336
     25          6           0        3.605978   -0.726005   -2.479084
     26          1           0        3.355800   -1.701251   -2.036905
     27          1           0        3.570637   -0.858980   -3.565034
     28          6           0        5.011955   -0.313033   -2.001140
     29          6           0        4.913144   -0.088724   -0.464309
     30          1           0        4.516881   -1.037338   -0.063158
     31          6           0        6.376479    0.000000    0.000000
     32          1           0        6.492089   -0.267849    1.054896
     33          1           0        6.756075    1.021287   -0.104762
     34          6           0        7.125486   -0.982374   -0.941696
     35          1           0        7.991493   -0.490956   -1.400510
     36          1           0        7.517473   -1.846263   -0.395274
     37          6           0        6.109971   -1.431817   -2.041971
     38          1           0        5.611980   -2.347932   -1.691275
     39          6           0        5.496382    0.947523   -2.753046
     40          1           0        4.848140    1.810458   -2.581209
     41          1           0        6.507186    1.240678   -2.454170
     42          1           0        5.514200    0.768304   -3.833251
     43          6           0        6.803861   -1.770562   -3.384875
     44          1           0        7.311111   -0.857764   -3.729933
     45          6           0        5.830236   -2.199909   -4.498639
     46          1           0        5.159924   -3.002205   -4.170636
     47          1           0        6.384630   -2.566895   -5.370504
     48          1           0        5.205910   -1.369810   -4.838664
     49          6           0        1.507741    2.969194   -1.006818
     50          1           0        1.277647    2.795405   -2.062654
     51          1           0        0.815408    3.735340   -0.648333
     52          1           0        2.515214    3.390116   -0.937570
     53          8           0        4.992798    1.989944    1.825651
     54          8           0        5.175912    1.953198    3.273200
     55          1           0        6.038453    1.509688    3.326636
     56          8           0       -2.117711    2.660478    2.286028
     57          1           0       -2.190804    3.542365    1.894729
     58          6           0        7.927479   -2.827970   -3.212732
     59          1           0        8.427952   -2.939459   -4.185259
     60          1           0        8.692151   -2.439152   -2.528786
     61          6           0        7.494877   -4.221293   -2.727337
     62          1           0        7.035195   -4.146596   -1.732122
     63          1           0        6.721977   -4.620234   -3.394673
     64          6           0        8.673458   -5.204331   -2.654087
     65          1           0        9.468097   -4.752220   -2.043160
     66          1           0        9.102015   -5.334048   -3.659805
     67          6           0        8.343657   -6.593723   -2.071386
     68          1           0        7.886040   -6.438515   -1.081883
     69          6           0        7.340705   -7.374118   -2.936637
     70          1           0        7.739821   -7.531099   -3.947298
     71          1           0        7.135649   -8.360339   -2.504798
     72          1           0        6.383724   -6.851644   -3.032861
     73          6           0        9.628729   -7.412123   -1.868645
     74          1           0       10.130105   -7.595871   -2.827597
     75          1           0        9.413119   -8.386482   -1.415538
     76          1           0       10.338064   -6.888504   -1.217503
 ---------------------------------------------------------------------

 SCF Done:  E(RHF) =  -1273.68441669     A.U. after    9 cycles

 Alpha  occ. eigenvalues --  -20.62437 -20.62316 -20.55611 -11.28600 -11.27713
 Alpha  occ. eigenvalues --  -11.24660 -11.23637 -11.23354 -11.23098 -11.23074
 Alpha  occ. eigenvalues --  -11.22712 -11.22629 -11.22596 -11.22505 -11.22313
 Alpha  occ. eigenvalues --  -11.22254 -11.22244 -11.22092 -11.21878 -11.21860
 Alpha  occ. eigenvalues --  -11.21821 -11.21667 -11.21626 -11.21607 -11.21583
 Alpha  occ. eigenvalues --  -11.21467 -11.21238 -11.21164 -11.21159 -11.21155
 Alpha  occ. eigenvalues --   -1.45731  -1.34974  -1.22361  -1.15884  -1.13957
 Alpha  occ. eigenvalues --   -1.09825  -1.08195  -1.05973  -1.05482  -1.03194
 Alpha  occ. eigenvalues --   -1.01637  -0.99748  -0.98006  -0.96265  -0.93160
 Alpha  occ. eigenvalues --   -0.92509  -0.92142  -0.91095  -0.90835  -0.85858
 Alpha  occ. eigenvalues --   -0.84179  -0.83001  -0.82754  -0.79202  -0.78233
 Alpha  occ. eigenvalues --   -0.76937  -0.76099  -0.74010  -0.72153  -0.70789
 Alpha  occ. eigenvalues --   -0.67864  -0.66616  -0.66127  -0.65174  -0.64845
 Alpha  occ. eigenvalues --   -0.64059  -0.63634  -0.62536  -0.61910  -0.61380
 Alpha  occ. eigenvalues --   -0.60914  -0.60191  -0.59630  -0.59271  -0.58820
 Alpha  occ. eigenvalues --   -0.57918  -0.57762  -0.56641  -0.55998  -0.55755
 Alpha  occ. eigenvalues --   -0.55287  -0.54813  -0.54668  -0.53900  -0.53742
 Alpha  occ. eigenvalues --   -0.53454  -0.53109  -0.52839  -0.52480  -0.52254
 Alpha  occ. eigenvalues --   -0.51678  -0.50795  -0.50133  -0.49506  -0.48843
 Alpha  occ. eigenvalues --   -0.48446  -0.48355  -0.47760  -0.47554  -0.47289
 Alpha  occ. eigenvalues --   -0.46748  -0.46177  -0.45465  -0.45355  -0.45102
 Alpha  occ. eigenvalues --   -0.44991  -0.44834  -0.44056  -0.43788  -0.43308
 Alpha  occ. eigenvalues --   -0.42722  -0.42302  -0.41834  -0.40709  -0.39050
 Alpha  occ. eigenvalues --   -0.33832
 Alpha virt. eigenvalues --    0.17012   0.20350   0.20931   0.21602   0.22239
 Alpha virt. eigenvalues --    0.22521   0.22936   0.23854   0.24535   0.24795
 Alpha virt. eigenvalues --    0.25343   0.25718   0.26139   0.26934   0.27086

 Mulliken charges:
               1
     1  C    0.193737
     2  H    0.172294
     3  C   -0.366690
     4  H    0.195130
     5  H    0.154586
     6  C    0.068999
     7  C   -0.040908
     8  C   -0.326205
     9  H    0.164422
    10  H    0.171808
    11  C   -0.339550
    12  H    0.144656
    13  H    0.182370
    14  C   -0.250073
    15  H    0.212721
    16  C    0.190039
    17  H    0.166228
    18  C   -0.189337
    19  H    0.191587
    20  C   -0.164926
    21  H    0.158577
    22  C   -0.328854
    23  H    0.165746
    24  H    0.168836
    25  C   -0.298134
    26  H    0.152185
    27  H    0.165894
    28  C   -0.029973
    29  C   -0.163590
    30  H    0.150896
    31  C   -0.302457
    32  H    0.150808
    33  H    0.175654
    34  C   -0.338417
    35  H    0.162161
    36  H    0.165236
    37  C   -0.140534
    38  H    0.157084
    39  C   -0.489283
    40  H    0.164555
    41  H    0.167657
    42  H    0.163272
    43  C   -0.148222
    44  H    0.158019
    45  C   -0.486864
    46  H    0.157053
    47  H    0.158697
    48  H    0.161871
    49  C   -0.478163
    50  H    0.163830
    51  H    0.163499
    52  H    0.174180
    53  O   -0.394820
    54  O   -0.469433
    55  H    0.460466
    56  O   -0.759754
    57  H    0.428142
    58  C   -0.310288
    59  H    0.153990
    60  H    0.161031
    61  C   -0.316345
    62  H    0.152682
    63  H    0.161260
    64  C   -0.294838
    65  H    0.151736
    66  H    0.148165
    67  C   -0.147197
    68  H    0.150289
    69  C   -0.476261
    70  H    0.152160
    71  H    0.158600
    72  H    0.161624
    73  C   -0.472547
    74  H    0.153089
    75  H    0.158398
    76  H    0.157746
 Sum of Mulliken charges =   0.00000

 Dipole moment (field-independent basis, Debye):
    X=              1.0666    Y=             -1.1156    Z=             -2.1492  Tot=              2.6460
 Quadrupole moment (field-independent basis, Debye-Ang):
   XX=           -190.4606   YY=           -192.5310   ZZ=           -196.1343
   XY=             -8.1948   XZ=              4.8240   YZ=             -8.6691

 ESP charges:
               1
     1  C    0.521571
     2  H    0.045871
     3  C   -0.478858
     4  H    0.150664
     5  H    0.155094
     6  C   -0.075121
     7  C    0.423946
     8  C   -0.073427
     9  H    0.026375
    10  H    0.059268
    11  C   -0.342034
    12  H    0.083390
    13  H    0.095891
    14  C   -0.286304
    15  H    0.188663
    16  C    0.271863
    17  H    0.008012
    18  C    0.217084
    19  H    0.008414
    20  C   -0.396063
    21  H    0.057823
    22  C    0.176903
    23  H   -0.017839
    24  H   -0.016689
    25  C   -0.322033
    26  H    0.040173
    27  H    0.050928
    28  C    0.587093
    29  C   -0.081933
    30  H    0.015059
    31  C   -0.295301
    32  H    0.091026
    33  H    0.064920
    34  C   -0.083904
    35  H    0.025571
    36  H    0.036457
    37  C    0.208877
    38  H   -0.111044
    39  C   -0.592608
    40  H    0.127041
    41  H    0.120412
    42  H    0.113449
    43  C    0.165166
    44  H   -0.027219
    45  C   -0.383745
    46  H    0.066032
    47  H    0.097601
    48  H    0.079724
    49  C   -0.329811
    50  H    0.059411
    51  H    0.077538
    52  H    0.090563
    53  O   -0.286882
    54  O   -0.446132
    55  H    0.428202
    56  O   -0.734323
    57  H    0.416898
    58  C   -0.218112
    59  H    0.062687
    60  H    0.021880
    61  C    0.098627
    62  H   -0.001128
    63  H    0.034005
    64  C   -0.319102
    65  H    0.076266
    66  H    0.073940
    67  C    0.464035
    68  H   -0.045842
    69  C   -0.472662
    70  H    0.115943
    71  H    0.107347
    72  H    0.088346
    73  C   -0.467477
    74  H    0.107045
    75  H    0.107202
    76  H    0.095300
 Sum of ESP charges =   0.00000

 Normal termination of Gaussian 09 at Thu Apr 27 16:15:07 2017.
