 Gaussian 09, Revision D.01,
 Gaussian 09:  EM64L-G09RevD.01 24-Apr-2013

 ----------------------------------------------------------------------
 #P HF/6-31G* SCF(Conver=6) NoSymm Test Pop=mk IOp(6/33=2) GFInput GFPr
 int
 ----------------------------------------------------------------------

 ----------------------------------------------
 MEP - Input generated by R.E.D.-III.x MOLECULE
 ----------------------------------------------
 Symbolic Z-matrix:
 Charge =  0 Multiplicity = 1

                          Input orientation:
 ---------------------------------------------------------------------
 Center     Atomic      Atomic             Coordinates (Angstroms)
 Number     Number       Type             X           Y           Z
 ---------------------------------------------------------------------
      1          6           0        1.759209   -1.248276   -0.068829
      2          1           0        1.872882   -1.124167   -1.152763
      3          6           0        3.150776   -1.310897    0.575932
      4          1           0        3.729338   -2.127242    0.132967
      5          1           0        3.013973   -1.562403    1.640405
      6          6           0        3.912601   -0.004139    0.457141
      7          6           0        3.186849    1.271745    0.895425
      8          6           0        1.746978    1.253992    0.293930
      9          1           0        1.822645    1.448895   -0.784933
     10          1           0        1.162974    2.077740    0.717945
     11          6           0        0.977239   -0.060969    0.492321
     12          1           0        0.780777   -0.234488    1.560728
     13          1           0        0.000000    0.000000    0.000000
     14          6           0        5.171650    0.000000    0.000000
     15          1           0        5.637438   -0.933761   -0.306988
     16          6           0        6.057191    1.207145   -0.097255
     17          1           0        6.309208    1.408017   -1.150174
     18          6           0        5.481714    2.473202    0.558423
     19          1           0        5.698502    2.401191    1.632364
     20          6           0        3.942873    2.528117    0.342433
     21          1           0        3.793566    2.505304   -0.749414
     22          6           0        3.355722    3.866729    0.845764
     23          1           0        3.385360    3.894298    1.940362
     24          1           0        2.297112    3.927550    0.571148
     25          6           0        4.071570    5.116901    0.299062
     26          1           0        3.916093    5.180353   -0.787682
     27          1           0        3.600151    6.004529    0.732768
     28          6           0        5.586746    5.081691    0.580093
     29          6           0        6.121683    3.749014   -0.019729
     30          1           0        5.820384    3.773632   -1.081053
     31          6           0        7.650729    3.912095    0.000000
     32          1           0        8.142694    3.284973   -0.750072
     33          1           0        8.060932    3.615429    0.970455
     34          6           0        7.866299    5.426952   -0.267527
     35          1           0        8.526205    5.862122    0.492190
     36          1           0        8.353511    5.600775   -1.232149
     37          6           0        6.460292    6.108806   -0.220646
     38          1           0        6.050303    6.113811   -1.241530
     39          6           0        5.864407    5.201668    2.095812
     40          1           0        5.426860    4.378555    2.666270
     41          1           0        6.935764    5.212124    2.317242
     42          1           0        5.439774    6.129736    2.492718
     43          6           0        6.532683    7.581781    0.253261
     44          1           0        6.956301    7.577841    1.268211
     45          6           0        5.161206    8.278420    0.335722
     46          1           0        4.590033    8.174396   -0.593433
     47          1           0        5.288003    9.350252    0.528767
     48          1           0        4.546433    7.875188    1.144369
     49          6           0        3.104258    1.285823    2.445364
     50          1           0        2.461130    2.095674    2.803766
     51          1           0        2.690231    0.350976    2.831983
     52          1           0        4.094820    1.407097    2.893765
     53          8           0        7.304177    0.958853    0.599980
     54          8           0        8.034819   -0.062913   -0.143208
     55          1           0        8.798103    0.456306   -0.445462
     56          8           0        1.052056   -2.483953    0.068997
     57          1           0        0.920894   -2.662059    1.010942
     58          6           0        7.518242    8.424586   -0.602193
     59          1           0        7.573623    9.425572   -0.149974
     60          1           0        8.524515    8.000900   -0.509311
     61          6           0        7.165739    8.585002   -2.090926
     62          1           0        7.210973    7.612276   -2.596351
     63          1           0        6.126021    8.922435   -2.185218
     64          6           0        8.052385    9.599589   -2.838327
     65          1           0        7.947136   10.578426   -2.348350
     66          1           0        7.657707    9.727534   -3.857300
     67          6           0        9.556346    9.268621   -2.945452
     68          1           0        9.956017    9.142287   -1.929126
     69          6           0        9.816249    7.966964   -3.720306
     70          1           0        9.418317    8.035825   -4.741196
     71          1           0       10.890601    7.764098   -3.796102
     72          1           0        9.351297    7.100113   -3.239732
     73          6           0       10.311476   10.440041   -3.593933
     74          1           0        9.955810   10.615965   -4.617391
     75          1           0       11.387778   10.239952   -3.646498
     76          1           0       10.170012   11.368423   -3.028745
 ---------------------------------------------------------------------

 SCF Done:  E(RHF) =  -1273.68261786     A.U. after    9 cycles

 Alpha  occ. eigenvalues --  -20.62439 -20.62319 -20.55611 -11.28603 -11.27713
 Alpha  occ. eigenvalues --  -11.24661 -11.23638 -11.23356 -11.23111 -11.23079
 Alpha  occ. eigenvalues --  -11.22714 -11.22618 -11.22553 -11.22504 -11.22315
 Alpha  occ. eigenvalues --  -11.22269 -11.22264 -11.22094 -11.21880 -11.21861
 Alpha  occ. eigenvalues --  -11.21825 -11.21701 -11.21646 -11.21642 -11.21578
 Alpha  occ. eigenvalues --  -11.21485 -11.21247 -11.21226 -11.21152 -11.21148
 Alpha  occ. eigenvalues --   -1.45734  -1.34975  -1.22363  -1.15892  -1.13965
 Alpha  occ. eigenvalues --   -1.09851  -1.08158  -1.05899  -1.05484  -1.03197
 Alpha  occ. eigenvalues --   -1.01588  -0.99644  -0.98016  -0.96268  -0.93174
 Alpha  occ. eigenvalues --   -0.92559  -0.92148  -0.91214  -0.90848  -0.85861
 Alpha  occ. eigenvalues --   -0.84249  -0.83074  -0.82831  -0.79562  -0.78298
 Alpha  occ. eigenvalues --   -0.77059  -0.75745  -0.73706  -0.71962  -0.70729
 Alpha  occ. eigenvalues --   -0.67868  -0.66616  -0.66119  -0.65173  -0.64616
 Alpha  occ. eigenvalues --   -0.63773  -0.63603  -0.63030  -0.62102  -0.61669
 Alpha  occ. eigenvalues --   -0.60912  -0.60452  -0.59625  -0.59042  -0.58462
 Alpha  occ. eigenvalues --   -0.57796  -0.56922  -0.56561  -0.56391  -0.55866
 Alpha  occ. eigenvalues --   -0.55642  -0.54990  -0.54302  -0.53956  -0.53831
 Alpha  occ. eigenvalues --   -0.53693  -0.53442  -0.53220  -0.52727  -0.52229
 Alpha  occ. eigenvalues --   -0.51144  -0.50846  -0.50531  -0.49503  -0.48779
 Alpha  occ. eigenvalues --   -0.48518  -0.48228  -0.47922  -0.47778  -0.47219
 Alpha  occ. eigenvalues --   -0.46609  -0.46185  -0.45496  -0.45374  -0.45011
 Alpha  occ. eigenvalues --   -0.44944  -0.44162  -0.44062  -0.43897  -0.43276
 Alpha  occ. eigenvalues --   -0.42649  -0.42301  -0.41964  -0.40723  -0.39064
 Alpha  occ. eigenvalues --   -0.33833
 Alpha virt. eigenvalues --    0.17010   0.19792   0.20844   0.21481   0.21984
 Alpha virt. eigenvalues --    0.22553   0.23033   0.23667   0.24259   0.24959
 Alpha virt. eigenvalues --    0.25346   0.25848   0.26077   0.26801   0.27198

 Mulliken charges:
               1
     1  C    0.193729
     2  H    0.172321
     3  C   -0.366703
     4  H    0.195144
     5  H    0.154581
     6  C    0.069025
     7  C   -0.040874
     8  C   -0.326193
     9  H    0.164439
    10  H    0.171775
    11  C   -0.339528
    12  H    0.144656
    13  H    0.182375
    14  C   -0.250157
    15  H    0.212781
    16  C    0.190064
    17  H    0.166238
    18  C   -0.189297
    19  H    0.191546
    20  C   -0.164959
    21  H    0.158631
    22  C   -0.328841
    23  H    0.165746
    24  H    0.168839
    25  C   -0.298166
    26  H    0.152333
    27  H    0.165962
    28  C   -0.030278
    29  C   -0.163549
    30  H    0.151037
    31  C   -0.302537
    32  H    0.151095
    33  H    0.175899
    34  C   -0.342417
    35  H    0.162130
    36  H    0.168001
    37  C   -0.140703
    38  H    0.157716
    39  C   -0.489216
    40  H    0.164602
    41  H    0.167645
    42  H    0.163314
    43  C   -0.147717
    44  H    0.157697
    45  C   -0.487126
    46  H    0.157454
    47  H    0.158622
    48  H    0.161898
    49  C   -0.478236
    50  H    0.163856
    51  H    0.163519
    52  H    0.174127
    53  O   -0.394826
    54  O   -0.469366
    55  H    0.460474
    56  O   -0.759731
    57  H    0.428144
    58  C   -0.313723
    59  H    0.152612
    60  H    0.165043
    61  C   -0.318634
    62  H    0.156639
    63  H    0.161080
    64  C   -0.297711
    65  H    0.151831
    66  H    0.150838
    67  C   -0.152418
    68  H    0.156962
    69  C   -0.479248
    70  H    0.152449
    71  H    0.158744
    72  H    0.161653
    73  C   -0.471956
    74  H    0.152448
    75  H    0.158260
    76  H    0.158140
 Sum of Mulliken charges =   0.00000

 Dipole moment (field-independent basis, Debye):
    X=             -0.0011    Y=              2.6997    Z=              0.3498  Tot=              2.7223
 Quadrupole moment (field-independent basis, Debye-Ang):
   XX=           -190.0207   YY=           -192.2359   ZZ=           -188.9570
   XY=             10.3647   XZ=             -8.4696   YZ=             -2.8659

 ESP charges:
               1
     1  C    0.488455
     2  H    0.052435
     3  C   -0.442671
     4  H    0.140704
     5  H    0.146746
     6  C   -0.050295
     7  C    0.402210
     8  C   -0.146348
     9  H    0.040634
    10  H    0.078233
    11  C   -0.312643
    12  H    0.082815
    13  H    0.094165
    14  C   -0.329571
    15  H    0.190600
    16  C    0.376992
    17  H   -0.008933
    18  C   -0.004105
    19  H    0.056245
    20  C   -0.257509
    21  H    0.046279
    22  C    0.066597
    23  H   -0.000919
    24  H    0.000440
    25  C   -0.229525
    26  H    0.017217
    27  H    0.037878
    28  C    0.575034
    29  C   -0.025156
    30  H    0.010212
    31  C   -0.305257
    32  H    0.092697
    33  H    0.059576
    34  C   -0.013918
    35  H    0.011421
    36  H    0.002355
    37  C    0.181209
    38  H   -0.111383
    39  C   -0.604769
    40  H    0.130976
    41  H    0.125203
    42  H    0.116767
    43  C    0.179947
    44  H   -0.041583
    45  C   -0.380534
    46  H    0.066644
    47  H    0.097023
    48  H    0.074362
    49  C   -0.295048
    50  H    0.053254
    51  H    0.069604
    52  H    0.078245
    53  O   -0.285385
    54  O   -0.447761
    55  H    0.423550
    56  O   -0.726189
    57  H    0.413879
    58  C   -0.147870
    59  H    0.045826
    60  H    0.004830
    61  C    0.024501
    62  H    0.022700
    63  H    0.035561
    64  C   -0.337757
    65  H    0.082661
    66  H    0.070900
    67  C    0.513700
    68  H   -0.047223
    69  C   -0.466014
    70  H    0.108707
    71  H    0.095916
    72  H    0.107195
    73  C   -0.508696
    74  H    0.118223
    75  H    0.115471
    76  H    0.100268
 Sum of ESP charges =   0.00000

 Normal termination of Gaussian 09 at Thu Apr 27 16:21:15 2017.
