 Gaussian 09, Revision D.01,
 Gaussian 09:  EM64L-G09RevD.01 24-Apr-2013

 ----------------------------------------------------------------------
 #P HF/6-31G* SCF(Conver=6) NoSymm Test Pop=mk IOp(6/33=2) GFInput GFPr
 int
 ----------------------------------------------------------------------

 ----------------------------------------------
 MEP - Input generated by R.E.D.-III.x MOLECULE
 ----------------------------------------------
 Symbolic Z-matrix:
 Charge =  0 Multiplicity = 1

                          Input orientation:
 ---------------------------------------------------------------------
 Center     Atomic      Atomic             Coordinates (Angstroms)
 Number     Number       Type             X           Y           Z
 ---------------------------------------------------------------------
      1          6           0        0.998168   -0.892628   -1.692006
      2          1           0        1.153341    0.075411   -2.183915
      3          6           0        2.210735   -1.793438   -1.966778
      4          1           0        2.351494   -1.906644   -3.046360
      5          1           0        1.976211   -2.795177   -1.571401
      6          6           0        3.484119   -1.281858   -1.320725
      7          6           0        3.423093   -0.917521    0.166743
      8          6           0        2.127681   -0.084551    0.419396
      9          1           0        2.277122    0.920111    0.000000
     10          1           0        1.985263    0.047716    1.496935
     11          6           0        0.844693   -0.672490   -0.187870
     12          1           0        0.596365   -1.631421    0.290924
     13          1           0        0.000000    0.000000    0.000000
     14          6           0        4.608488   -1.172353   -2.041090
     15          1           0        4.592318   -1.418111   -3.103464
     16          6           0        5.945190   -0.742636   -1.512168
     17          1           0        6.236660    0.209220   -1.985352
     18          6           0        6.010033   -0.603568    0.016425
     19          1           0        6.167845   -1.610521    0.417815
     20          6           0        4.664273   -0.037198    0.548724
     21          1           0        4.513552    0.923791    0.029258
     22          6           0        4.745629    0.283621    2.058419
     23          1           0        4.782731   -0.648126    2.633250
     24          1           0        3.831549    0.797876    2.374877
     25          6           0        5.953651    1.155539    2.452223
     26          1           0        5.848935    2.151077    1.996885
     27          1           0        5.932084    1.306456    3.535892
     28          6           0        7.286902    0.537474    1.985684
     29          6           0        7.163674    0.318742    0.449363
     30          1           0        6.920472    1.314409    0.037778
     31          6           0        8.598475    0.000000    0.000000
     32          1           0        8.761279    0.207320   -1.060703
     33          1           0        8.819966   -1.062964    0.139971
     34          6           0        9.475848    0.890039    0.920685
     35          1           0       10.283969    0.303709    1.374541
     36          1           0        9.959075    1.690385    0.352085
     37          6           0        8.540288    1.480050    2.030194
     38          1           0        8.189555    2.467578    1.689605
     39          6           0        7.577133   -0.777985    2.744719
     40          1           0        6.816567   -1.541302    2.562105
     41          1           0        8.540236   -1.210503    2.458762
     42          1           0        7.605960   -0.602503    3.825150
     43          6           0        9.280559    1.710723    3.373804
     44          1           0        9.699539    0.744903    3.695247
     45          6           0        8.361833    2.227582    4.495340
     46          1           0        7.842235    3.142967    4.185069
     47          1           0        8.932516    2.461747    5.398927
     48          1           0        7.604075    1.494361    4.780258
     49          6           0        3.370039   -2.230361    0.992668
     50          1           0        3.179354   -2.026740    2.050870
     51          1           0        2.571819   -2.891031    0.643341
     52          1           0        4.308443   -2.786306    0.910790
     53          8           0        6.992639   -1.594655   -2.041585
     54          8           0        6.827288   -2.942139   -1.509447
     55          1           0        6.425845   -3.393629   -2.269918
     56          8           0       -0.191389   -1.405633   -2.297538
     57          1           0       -0.408090   -2.253884   -1.885581
     58          6           0       10.472260    2.679361    3.168065
     59          1           0       11.031487    2.382863    2.273698
     60          1           0       10.076271    3.685195    2.958774
     61          6           0       11.468425    2.758771    4.336320
     62          1           0       10.961492    3.108496    5.242358
     63          1           0       11.839354    1.747336    4.560466
     64          6           0       12.663105    3.675174    4.031226
     65          1           0       12.299354    4.697463    3.844815
     66          1           0       13.127449    3.343272    3.091549
     67          6           0       13.754278    3.727669    5.120065
     68          1           0       14.074305    2.693117    5.319383
     69          6           0       14.979739    4.507341    4.617233
     70          1           0       14.716404    5.550379    4.399157
     71          1           0       15.780185    4.517285    5.365849
     72          1           0       15.384426    4.067489    3.698510
     73          6           0       13.243447    4.325454    6.441205
     74          1           0       12.885302    5.352224    6.289876
     75          1           0       14.043296    4.360859    7.189690
     76          1           0       12.420013    3.743683    6.867261
 ---------------------------------------------------------------------

 SCF Done:  E(RHF) =  -1273.68494835     A.U. after    9 cycles

 Alpha  occ. eigenvalues --  -20.62438 -20.62303 -20.56049 -11.28766 -11.28184
 Alpha  occ. eigenvalues --  -11.24914 -11.24416 -11.23219 -11.23152 -11.22950
 Alpha  occ. eigenvalues --  -11.22669 -11.22658 -11.22647 -11.22375 -11.22329
 Alpha  occ. eigenvalues --  -11.22205 -11.22038 -11.21919 -11.21852 -11.21638
 Alpha  occ. eigenvalues --  -11.21504 -11.21384 -11.21327 -11.21193 -11.20936
 Alpha  occ. eigenvalues --  -11.20933 -11.20895 -11.20764 -11.20760 -11.20370
 Alpha  occ. eigenvalues --   -1.45698  -1.35426  -1.22127  -1.15856  -1.13870
 Alpha  occ. eigenvalues --   -1.09566  -1.08094  -1.05925  -1.05733  -1.03052
 Alpha  occ. eigenvalues --   -1.01714  -0.99544  -0.97877  -0.96295  -0.92801
 Alpha  occ. eigenvalues --   -0.92278  -0.92142  -0.90795  -0.90446  -0.86034
 Alpha  occ. eigenvalues --   -0.83985  -0.82913  -0.82243  -0.78697  -0.78253
 Alpha  occ. eigenvalues --   -0.76869  -0.75875  -0.74348  -0.72072  -0.69384
 Alpha  occ. eigenvalues --   -0.69347  -0.67134  -0.65626  -0.65281  -0.64750
 Alpha  occ. eigenvalues --   -0.63944  -0.63739  -0.62815  -0.61764  -0.61099
 Alpha  occ. eigenvalues --   -0.60703  -0.59983  -0.59673  -0.59016  -0.58601
 Alpha  occ. eigenvalues --   -0.57867  -0.57139  -0.56654  -0.56034  -0.55641
 Alpha  occ. eigenvalues --   -0.55249  -0.54949  -0.54045  -0.53966  -0.53278
 Alpha  occ. eigenvalues --   -0.53159  -0.52916  -0.52736  -0.52276  -0.51866
 Alpha  occ. eigenvalues --   -0.51408  -0.50847  -0.50027  -0.49783  -0.48493
 Alpha  occ. eigenvalues --   -0.48217  -0.47940  -0.47572  -0.47232  -0.46914
 Alpha  occ. eigenvalues --   -0.46481  -0.45994  -0.45728  -0.45515  -0.45051
 Alpha  occ. eigenvalues --   -0.44754  -0.44690  -0.44148  -0.43305  -0.43207
 Alpha  occ. eigenvalues --   -0.42655  -0.42328  -0.41552  -0.40427  -0.38556
 Alpha  occ. eigenvalues --   -0.34424
 Alpha virt. eigenvalues --    0.16140   0.20814   0.21349   0.21746   0.22414
 Alpha virt. eigenvalues --    0.22933   0.22973   0.24521   0.24992   0.25418
 Alpha virt. eigenvalues --    0.25779   0.26049   0.26351   0.26725   0.27319

 Mulliken charges:
               1
     1  C    0.193929
     2  H    0.173820
     3  C   -0.368299
     4  H    0.191914
     5  H    0.155423
     6  C    0.083535
     7  C   -0.042171
     8  C   -0.327313
     9  H    0.165844
    10  H    0.174421
    11  C   -0.341346
    12  H    0.144968
    13  H    0.183996
    14  C   -0.279670
    15  H    0.185777
    16  C    0.190651
    17  H    0.186695
    18  C   -0.182593
    19  H    0.208621
    20  C   -0.168228
    21  H    0.156559
    22  C   -0.327846
    23  H    0.165073
    24  H    0.166839
    25  C   -0.297687
    26  H    0.151503
    27  H    0.165086
    28  C   -0.030704
    29  C   -0.168813
    30  H    0.147105
    31  C   -0.306158
    32  H    0.173508
    33  H    0.177537
    34  C   -0.339418
    35  H    0.159701
    36  H    0.165594
    37  C   -0.135291
    38  H    0.150844
    39  C   -0.488158
    40  H    0.163146
    41  H    0.170011
    42  H    0.161108
    43  C   -0.148808
    44  H    0.153398
    45  C   -0.485163
    46  H    0.152468
    47  H    0.163074
    48  H    0.161280
    49  C   -0.480757
    50  H    0.165854
    51  H    0.159942
    52  H    0.180291
    53  O   -0.393229
    54  O   -0.470516
    55  H    0.458895
    56  O   -0.759092
    57  H    0.428502
    58  C   -0.308504
    59  H    0.167205
    60  H    0.147367
    61  C   -0.309612
    62  H    0.158646
    63  H    0.149340
    64  C   -0.295500
    65  H    0.147609
    66  H    0.152356
    67  C   -0.147288
    68  H    0.151503
    69  C   -0.472476
    70  H    0.152476
    71  H    0.157889
    72  H    0.158102
    73  C   -0.476304
    74  H    0.151609
    75  H    0.158192
    76  H    0.161740
 Sum of Mulliken charges =   0.00000

 Dipole moment (field-independent basis, Debye):
    X=             -1.2164    Y=             -0.6394    Z=              1.1331  Tot=              1.7812
 Quadrupole moment (field-independent basis, Debye-Ang):
   XX=           -217.3534   YY=           -185.2376   ZZ=           -193.8979
   XY=              3.7941   XZ=             -1.0606   YZ=              1.1270

 ESP charges:
               1
     1  C    0.546020
     2  H    0.036630
     3  C   -0.440387
     4  H    0.128387
     5  H    0.128016
     6  C    0.162562
     7  C    0.188441
     8  C   -0.017125
     9  H    0.014266
    10  H    0.064763
    11  C   -0.363724
    12  H    0.089473
    13  H    0.095165
    14  C   -0.551581
    15  H    0.207799
    16  C    0.490227
    17  H    0.036674
    18  C   -0.293861
    19  H    0.139803
    20  C   -0.188673
    21  H    0.057882
    22  C    0.042551
    23  H    0.016467
    24  H    0.002948
    25  C   -0.201678
    26  H    0.020455
    27  H    0.034049
    28  C    0.497429
    29  C    0.353970
    30  H   -0.076180
    31  C   -0.319400
    32  H    0.079167
    33  H    0.100449
    34  C   -0.082109
    35  H    0.046085
    36  H    0.048531
    37  C   -0.218434
    38  H    0.022466
    39  C   -0.533751
    40  H    0.110313
    41  H    0.110442
    42  H    0.109753
    43  C    0.251036
    44  H   -0.004249
    45  C   -0.504951
    46  H    0.112921
    47  H    0.107468
    48  H    0.122612
    49  C   -0.371544
    50  H    0.088773
    51  H    0.096383
    52  H    0.107493
    53  O   -0.339199
    54  O   -0.467814
    55  H    0.459353
    56  O   -0.741824
    57  H    0.418636
    58  C   -0.074842
    59  H    0.009080
    60  H    0.028061
    61  C    0.020532
    62  H    0.039748
    63  H   -0.013122
    64  C   -0.215541
    65  H    0.044290
    66  H    0.049255
    67  C    0.442551
    68  H   -0.039984
    69  C   -0.513573
    70  H    0.115095
    71  H    0.119325
    72  H    0.108925
    73  C   -0.425755
    74  H    0.105713
    75  H    0.096057
    76  H    0.074808
 Sum of ESP charges =   0.00000

 Normal termination of Gaussian 09 at Thu Apr 27 15:15:13 2017.
