 Gaussian 09, Revision D.01,
 Gaussian 09:  EM64L-G09RevD.01 24-Apr-2013

 ----------------------------------------------------------------------
 #P HF/6-31G* SCF(Conver=6) NoSymm Test Pop=mk IOp(6/33=2) GFInput GFPr
 int
 ----------------------------------------------------------------------

 ----------------------------------------------
 MEP - Input generated by R.E.D.-III.x MOLECULE
 ----------------------------------------------
 Symbolic Z-matrix:
 Charge =  0 Multiplicity = 1

                          Input orientation:
 ---------------------------------------------------------------------
 Center     Atomic      Atomic             Coordinates (Angstroms)
 Number     Number       Type             X           Y           Z
 ---------------------------------------------------------------------
      1          6           0        7.517329    2.214820    0.068498
      2          1           0        7.355558    2.183963    1.152948
      3          6           0        6.821768    1.007048   -0.575551
      4          1           0        7.204686    0.080703   -0.135791
      5          1           0        7.103135    0.991455   -1.641104
      6          6           0        5.310877    1.062199   -0.453846
      7          6           0        4.616139    2.360430   -0.879120
      8          6           0        5.409779    3.564563   -0.282562
      9          1           0        5.211536    3.606316    0.797496
     10          1           0        5.024264    4.498490   -0.704497
     11          6           0        6.931188    3.510691   -0.489747
     12          1           0        7.176913    3.583284   -1.559682
     13          1           0        7.405700    4.368615    0.000000
     14          6           0        4.632000    0.000000    0.000000
     15          1           0        5.176078   -0.890667    0.316200
     16          6           0        3.138886   -0.099738    0.108780
     17          1           0        2.855082   -0.192872    1.169757
     18          6           0        2.374597    1.068565   -0.532341
     19          1           0        2.316921    0.855915   -1.605400
     20          6           0        3.155872    2.392907   -0.306415
     21          1           0        3.270988    2.493977    0.785646
     22          6           0        2.339537    3.616702   -0.780628
     23          1           0        2.291356    3.627844   -1.874968
     24          1           0        2.856856    4.538096   -0.491517
     25          6           0        0.904238    3.670958   -0.222157
     26          1           0        0.941913    3.811786    0.867852
     27          1           0        0.407490    4.555785   -0.631999
     28          6           0        0.118383    2.379681   -0.525677
     29          6           0        0.956753    1.201748    0.051352
     30          1           0        1.095374    1.446295    1.119468
     31          6           0        0.000000    0.000000    0.000000
     32          1           0        0.274458   -0.784780    0.709499
     33          1           0        0.017333   -0.465593   -0.990677
     34          6           0       -1.386986    0.623544    0.311267
     35          1           0       -2.133624    0.299182   -0.423649
     36          1           0       -1.756378    0.297781    1.288422
     37          6           0       -1.219942    2.180618    0.268566
     38          1           0       -1.018985    2.529436    1.294325
     39          6           0       -0.131835    2.233830   -2.044461
     40          1           0        0.797407    2.157471   -2.614599
     41          1           0       -0.724596    1.344492   -2.277100
     42          1           0       -0.677928    3.100576   -2.431100
     43          6           0       -2.508048    2.905180   -0.202810
     44          1           0       -2.763287    2.518277   -1.201239
     45          6           0       -2.345038    4.431680   -0.312178
     46          1           0       -2.001973    4.858075    0.639036
     47          1           0       -3.293256    4.913885   -0.567768
     48          1           0       -1.626331    4.716708   -1.083651
     49          6           0        4.630537    2.440814   -2.428913
     50          1           0        4.277672    3.415532   -2.779644
     51          1           0        5.639133    2.301385   -2.827591
     52          1           0        3.998673    1.664669   -2.870179
     53          8           0        2.685630   -1.392816   -0.366454
     54          8           0        2.934362   -1.489159   -1.800050
     55          1           0        3.728358   -2.048360   -1.813021
     56          8           0        8.938488    2.146730   -0.074932
     57          1           0        9.158136    2.200410   -1.015714
     58          6           0       -3.690250    2.558029    0.736285
     59          1           0       -3.711530    1.475851    0.907127
     60          1           0       -3.506183    3.017014    1.719993
     61          6           0       -5.080929    2.976625    0.231850
     62          1           0       -5.143121    4.068287    0.134480
     63          1           0       -5.227366    2.567696   -0.776856
     64          6           0       -6.210141    2.502354    1.159410
     65          1           0       -5.995199    2.854978    2.178491
     66          1           0       -6.202305    1.402762    1.211447
     67          6           0       -7.627437    2.971242    0.772005
     68          1           0       -7.604154    4.069367    0.693886
     69          6           0       -8.083097    2.412049   -0.585599
     70          1           0       -8.095693    1.314360   -0.568698
     71          1           0       -9.096667    2.751148   -0.828355
     72          1           0       -7.426327    2.725961   -1.402996
     73          6           0       -8.636615    2.602296    1.870997
     74          1           0       -8.698922    1.513414    1.994391
     75          1           0       -9.641382    2.966168    1.627549
     76          1           0       -8.349351    3.030644    2.838144
 ---------------------------------------------------------------------

 SCF Done:  E(RHF) =  -1273.68504500     A.U. after    9 cycles

 Alpha  occ. eigenvalues --  -20.62436 -20.62301 -20.56048 -11.28764 -11.28183
 Alpha  occ. eigenvalues --  -11.24912 -11.24413 -11.23218 -11.23151 -11.22948
 Alpha  occ. eigenvalues --  -11.22667 -11.22655 -11.22644 -11.22372 -11.22325
 Alpha  occ. eigenvalues --  -11.22201 -11.22036 -11.21920 -11.21848 -11.21634
 Alpha  occ. eigenvalues --  -11.21505 -11.21388 -11.21330 -11.21194 -11.20936
 Alpha  occ. eigenvalues --  -11.20903 -11.20889 -11.20761 -11.20749 -11.20365
 Alpha  occ. eigenvalues --   -1.45695  -1.35425  -1.22126  -1.15854  -1.13867
 Alpha  occ. eigenvalues --   -1.09569  -1.08092  -1.05923  -1.05729  -1.03050
 Alpha  occ. eigenvalues --   -1.01712  -0.99536  -0.97876  -0.96293  -0.92799
 Alpha  occ. eigenvalues --   -0.92264  -0.92141  -0.90793  -0.90442  -0.86032
 Alpha  occ. eigenvalues --   -0.83981  -0.82910  -0.82240  -0.78696  -0.78251
 Alpha  occ. eigenvalues --   -0.76864  -0.75860  -0.74380  -0.72081  -0.69383
 Alpha  occ. eigenvalues --   -0.69346  -0.67133  -0.65614  -0.65278  -0.64396
 Alpha  occ. eigenvalues --   -0.63994  -0.63603  -0.62819  -0.62310  -0.61307
 Alpha  occ. eigenvalues --   -0.60513  -0.60201  -0.59343  -0.59059  -0.58386
 Alpha  occ. eigenvalues --   -0.57868  -0.57309  -0.56073  -0.55987  -0.55932
 Alpha  occ. eigenvalues --   -0.55417  -0.54979  -0.54257  -0.53989  -0.53278
 Alpha  occ. eigenvalues --   -0.53249  -0.52934  -0.52808  -0.52139  -0.51501
 Alpha  occ. eigenvalues --   -0.51345  -0.50698  -0.50266  -0.49830  -0.48481
 Alpha  occ. eigenvalues --   -0.48286  -0.48066  -0.47513  -0.46997  -0.46802
 Alpha  occ. eigenvalues --   -0.46542  -0.45945  -0.45902  -0.45459  -0.45087
 Alpha  occ. eigenvalues --   -0.44876  -0.44609  -0.44151  -0.43304  -0.43205
 Alpha  occ. eigenvalues --   -0.42652  -0.42285  -0.41570  -0.40424  -0.38552
 Alpha  occ. eigenvalues --   -0.34422
 Alpha virt. eigenvalues --    0.16143   0.20817   0.21358   0.21769   0.22464
 Alpha virt. eigenvalues --    0.22883   0.22968   0.24581   0.24982   0.25430
 Alpha virt. eigenvalues --    0.25819   0.26067   0.26425   0.26629   0.27325

 Mulliken charges:
               1
     1  C    0.193917
     2  H    0.173813
     3  C   -0.368294
     4  H    0.191910
     5  H    0.155420
     6  C    0.083500
     7  C   -0.042146
     8  C   -0.327313
     9  H    0.165828
    10  H    0.174412
    11  C   -0.341330
    12  H    0.144977
    13  H    0.183980
    14  C   -0.279543
    15  H    0.185772
    16  C    0.190602
    17  H    0.186695
    18  C   -0.182623
    19  H    0.208680
    20  C   -0.168220
    21  H    0.156553
    22  C   -0.327845
    23  H    0.165064
    24  H    0.166809
    25  C   -0.297673
    26  H    0.151519
    27  H    0.165029
    28  C   -0.030662
    29  C   -0.168845
    30  H    0.147089
    31  C   -0.306142
    32  H    0.173422
    33  H    0.177606
    34  C   -0.339510
    35  H    0.159746
    36  H    0.165680
    37  C   -0.135137
    38  H    0.150822
    39  C   -0.488145
    40  H    0.163150
    41  H    0.170015
    42  H    0.161103
    43  C   -0.149238
    44  H    0.153180
    45  C   -0.485105
    46  H    0.152161
    47  H    0.163795
    48  H    0.161147
    49  C   -0.480770
    50  H    0.165837
    51  H    0.159943
    52  H    0.180308
    53  O   -0.393239
    54  O   -0.470540
    55  H    0.458911
    56  O   -0.759089
    57  H    0.428500
    58  C   -0.308188
    59  H    0.167533
    60  H    0.147049
    61  C   -0.309743
    62  H    0.153238
    63  H    0.154544
    64  C   -0.295425
    65  H    0.152092
    66  H    0.148126
    67  C   -0.147493
    68  H    0.150782
    69  C   -0.476263
    70  H    0.152007
    71  H    0.157859
    72  H    0.162501
    73  C   -0.472411
    74  H    0.152871
    75  H    0.157863
    76  H    0.157570
 Sum of Mulliken charges =   0.00000

 Dipole moment (field-independent basis, Debye):
    X=              0.7163    Y=              1.2927    Z=             -1.0571  Tot=              1.8170
 Quadrupole moment (field-independent basis, Debye-Ang):
   XX=           -199.3256   YY=           -187.0954   ZZ=           -188.5946
   XY=             -1.1187   XZ=            -14.3413   YZ=             -3.0239

 ESP charges:
               1
     1  C    0.511694
     2  H    0.047766
     3  C   -0.410317
     4  H    0.127356
     5  H    0.124864
     6  C    0.091215
     7  C    0.269751
     8  C   -0.040159
     9  H    0.016681
    10  H    0.061134
    11  C   -0.365921
    12  H    0.091165
    13  H    0.100470
    14  C   -0.525442
    15  H    0.200046
    16  C    0.497684
    17  H    0.032339
    18  C   -0.263269
    19  H    0.143063
    20  C   -0.191570
    21  H    0.048647
    22  C    0.072728
    23  H    0.008331
    24  H   -0.005288
    25  C   -0.232208
    26  H    0.023118
    27  H    0.039517
    28  C    0.507878
    29  C    0.293719
    30  H   -0.068425
    31  C   -0.278487
    32  H    0.074104
    33  H    0.091399
    34  C   -0.123742
    35  H    0.052116
    36  H    0.055492
    37  C   -0.147253
    38  H    0.011114
    39  C   -0.537030
    40  H    0.104790
    41  H    0.113312
    42  H    0.113521
    43  C    0.201080
    44  H   -0.002063
    45  C   -0.482428
    46  H    0.110603
    47  H    0.108623
    48  H    0.114794
    49  C   -0.317850
    50  H    0.067291
    51  H    0.079319
    52  H    0.085188
    53  O   -0.344403
    54  O   -0.475611
    55  H    0.462559
    56  O   -0.735137
    57  H    0.418356
    58  C   -0.106495
    59  H    0.011595
    60  H    0.043019
    61  C    0.045087
    62  H    0.011763
    63  H    0.016072
    64  C   -0.238697
    65  H    0.044547
    66  H    0.061982
    67  C    0.447591
    68  H   -0.047788
    69  C   -0.447386
    70  H    0.107860
    71  H    0.100655
    72  H    0.085044
    73  C   -0.477266
    74  H    0.104504
    75  H    0.110550
    76  H    0.101135
 Sum of ESP charges =   0.00000

 Normal termination of Gaussian 09 at Thu Apr 27 16:26:39 2017.
