 Gaussian 09, Revision D.01,
 Gaussian 09:  EM64L-G09RevD.01 24-Apr-2013

 ----------------------------------------------------------------------
 #P HF/6-31G* SCF(Conver=6) NoSymm Test Pop=mk IOp(6/33=2) GFInput GFPr
 int
 ----------------------------------------------------------------------

 ----------------------------------------------
 MEP - Input generated by R.E.D.-III.x MOLECULE
 ----------------------------------------------
 Symbolic Z-matrix:
 Charge =  0 Multiplicity = 1

                          Input orientation:
 ---------------------------------------------------------------------
 Center     Atomic      Atomic             Coordinates (Angstroms)
 Number     Number       Type             X           Y           Z
 ---------------------------------------------------------------------
      1          6           0        1.759341   -1.248501   -0.060995
      2          1           0        1.873016   -1.131492   -1.145719
      3          6           0        3.150831   -1.306784    0.584228
      4          1           0        3.729421   -2.126150    0.146924
      5          1           0        3.013991   -1.550974    1.650420
      6          6           0        3.912799   -0.000951    0.456523
      7          6           0        3.187103    1.278262    0.885497
      8          6           0        1.746811    1.256102    0.285198
      9          1           0        1.821442    1.444326   -0.794947
     10          1           0        1.162751    2.082050    0.704679
     11          6           0        0.977379   -0.057640    0.492453
     12          1           0        0.781214   -0.224082    1.562042
     13          1           0        0.000000    0.000000    0.000000
     14          6           0        5.172107    0.000000    0.000000
     15          1           0        5.637960   -0.935879   -0.300364
     16          6           0        6.057812    1.206404   -0.105112
     17          1           0        6.310147    1.400332   -1.159235
     18          6           0        5.482238    2.476531    0.542741
     19          1           0        5.696000    2.407118    1.617147
     20          6           0        3.943078    2.530440    0.322638
     21          1           0        3.796521    2.497257   -0.769370
     22          6           0        3.350032    3.873328    0.810306
     23          1           0        3.377898    3.915604    1.904334
     24          1           0        2.291901    3.926486    0.532484
     25          6           0        4.064612    5.116060    0.245639
     26          1           0        3.909722    5.159112   -0.841536
     27          1           0        3.595748    6.013937    0.665096
     28          6           0        5.576709    5.087312    0.535674
     29          6           0        6.125541    3.747810   -0.041361
     30          1           0        5.838869    3.754918   -1.106547
     31          6           0        7.656018    3.920711    0.000000
     32          1           0        8.161761    3.290247   -0.737947
     33          1           0        8.051885    3.632416    0.978935
     34          6           0        7.869442    5.436179   -0.274760
     35          1           0        8.503783    5.882346    0.497838
     36          1           0        8.379697    5.612312   -1.228245
     37          6           0        6.452707    6.091182   -0.291972
     38          1           0        6.084312    5.984036   -1.321879
     39          6           0        5.828914    5.201979    2.057160
     40          1           0        5.471301    4.323439    2.599978
     41          1           0        6.889759    5.314950    2.294150
     42          1           0        5.304602    6.068119    2.470593
     43          6           0        6.493577    7.626853   -0.044758
     44          1           0        7.250534    7.981157   -0.760924
     45          6           0        6.985550    8.097161    1.339219
     46          1           0        6.214884    7.992526    2.108547
     47          1           0        7.251633    9.159237    1.291837
     48          1           0        7.872959    7.555585    1.679350
     49          6           0        3.105542    1.304846    2.435286
     50          1           0        2.464834    2.119293    2.787573
     51          1           0        2.689393    0.374184    2.829613
     52          1           0        4.096643    1.427104    2.882136
     53          8           0        7.304599    0.962548    0.594019
     54          8           0        8.034950   -0.064513   -0.142250
     55          1           0        8.800311    0.451604   -0.444523
     56          8           0        1.052268   -2.483311    0.084883
     57          1           0        0.921543   -2.655497    1.027990
     58          6           0        5.179027    8.371930   -0.383885
     59          1           0        4.395371    8.049229    0.313417
     60          1           0        5.341798    9.438068   -0.169163
     61          6           0        4.639765    8.258834   -1.822880
     62          1           0        4.411720    7.212898   -2.065367
     63          1           0        3.678731    8.786984   -1.853476
     64          6           0        5.571649    8.833196   -2.901096
     65          1           0        6.530580    8.299301   -2.872712
     66          1           0        5.801805    9.883027   -2.661088
     67          6           0        5.028211    8.760686   -4.343773
     68          1           0        4.745212    7.714679   -4.539750
     69          6           0        3.779670    9.633428   -4.551816
     70          1           0        4.005539   10.688102   -4.347054
     71          1           0        3.423813    9.565856   -5.586163
     72          1           0        2.952144    9.336251   -3.900060
     73          6           0        6.123246    9.145227   -5.351604
     74          1           0        6.449401   10.181808   -5.197091
     75          1           0        5.762509    9.061894   -6.383130
     76          1           0        7.004169    8.500898   -5.250824
 ---------------------------------------------------------------------

 SCF Done:  E(RHF) =  -1273.67666312     A.U. after    9 cycles

 Alpha  occ. eigenvalues --  -20.62440 -20.62319 -20.55618 -11.28609 -11.27721
 Alpha  occ. eigenvalues --  -11.24676 -11.23648 -11.23397 -11.23138 -11.23084
 Alpha  occ. eigenvalues --  -11.22726 -11.22722 -11.22689 -11.22513 -11.22324
 Alpha  occ. eigenvalues --  -11.22321 -11.22275 -11.22124 -11.21905 -11.21886
 Alpha  occ. eigenvalues --  -11.21870 -11.21773 -11.21718 -11.21662 -11.21562
 Alpha  occ. eigenvalues --  -11.21494 -11.21243 -11.21202 -11.21089 -11.21049
 Alpha  occ. eigenvalues --   -1.45733  -1.34982  -1.22366  -1.15871  -1.13922
 Alpha  occ. eigenvalues --   -1.09803  -1.08147  -1.05959  -1.05497  -1.03187
 Alpha  occ. eigenvalues --   -1.01657  -0.99809  -0.97978  -0.96316  -0.92798
 Alpha  occ. eigenvalues --   -0.92570  -0.92521  -0.91512  -0.90705  -0.85868
 Alpha  occ. eigenvalues --   -0.84094  -0.82937  -0.82774  -0.79051  -0.78399
 Alpha  occ. eigenvalues --   -0.76965  -0.76254  -0.74443  -0.71988  -0.70540
 Alpha  occ. eigenvalues --   -0.67909  -0.66621  -0.65584  -0.65216  -0.64993
 Alpha  occ. eigenvalues --   -0.63614  -0.63329  -0.62849  -0.61877  -0.61479
 Alpha  occ. eigenvalues --   -0.60592  -0.60557  -0.59906  -0.59281  -0.59164
 Alpha  occ. eigenvalues --   -0.57955  -0.57562  -0.56523  -0.55974  -0.55842
 Alpha  occ. eigenvalues --   -0.55459  -0.54803  -0.54560  -0.53986  -0.53847
 Alpha  occ. eigenvalues --   -0.53510  -0.53218  -0.52986  -0.52733  -0.52264
 Alpha  occ. eigenvalues --   -0.51428  -0.50621  -0.50177  -0.49497  -0.48698
 Alpha  occ. eigenvalues --   -0.48646  -0.48412  -0.47843  -0.47691  -0.47338
 Alpha  occ. eigenvalues --   -0.46991  -0.46217  -0.45537  -0.45426  -0.45184
 Alpha  occ. eigenvalues --   -0.44958  -0.44620  -0.43945  -0.43651  -0.43044
 Alpha  occ. eigenvalues --   -0.42544  -0.42290  -0.41922  -0.40666  -0.38966
 Alpha  occ. eigenvalues --   -0.33841
 Alpha virt. eigenvalues --    0.17000   0.19925   0.20807   0.21418   0.22080
 Alpha virt. eigenvalues --    0.22433   0.22969   0.23666   0.24664   0.24885
 Alpha virt. eigenvalues --    0.24960   0.25603   0.26174   0.26867   0.27099

 Mulliken charges:
               1
     1  C    0.193740
     2  H    0.172288
     3  C   -0.366718
     4  H    0.195167
     5  H    0.154618
     6  C    0.069038
     7  C   -0.041003
     8  C   -0.326315
     9  H    0.164343
    10  H    0.171800
    11  C   -0.339471
    12  H    0.144691
    13  H    0.182378
    14  C   -0.250278
    15  H    0.212828
    16  C    0.191275
    17  H    0.166108
    18  C   -0.190558
    19  H    0.191882
    20  C   -0.164867
    21  H    0.158324
    22  C   -0.328733
    23  H    0.167115
    24  H    0.168892
    25  C   -0.302105
    26  H    0.154172
    27  H    0.163886
    28  C   -0.024198
    29  C   -0.166219
    30  H    0.150673
    31  C   -0.301654
    32  H    0.150904
    33  H    0.175719
    34  C   -0.331544
    35  H    0.162311
    36  H    0.161840
    37  C   -0.153690
    38  H    0.158249
    39  C   -0.485964
    40  H    0.163596
    41  H    0.168530
    42  H    0.162054
    43  C   -0.148203
    44  H    0.158238
    45  C   -0.481755
    46  H    0.156615
    47  H    0.159049
    48  H    0.160921
    49  C   -0.477939
    50  H    0.163911
    51  H    0.163504
    52  H    0.174138
    53  O   -0.394953
    54  O   -0.469430
    55  H    0.460530
    56  O   -0.759731
    57  H    0.428158
    58  C   -0.303448
    59  H    0.155652
    60  H    0.153535
    61  C   -0.317199
    62  H    0.155301
    63  H    0.160061
    64  C   -0.300453
    65  H    0.155557
    66  H    0.147619
    67  C   -0.146354
    68  H    0.150006
    69  C   -0.476433
    70  H    0.152388
    71  H    0.158915
    72  H    0.162074
    73  C   -0.472390
    74  H    0.153345
    75  H    0.158679
    76  H    0.156992
 Sum of Mulliken charges =   0.00000

 Dipole moment (field-independent basis, Debye):
    X=             -0.0495    Y=              2.6615    Z=              0.1534  Tot=              2.6663
 Quadrupole moment (field-independent basis, Debye-Ang):
   XX=           -190.5210   YY=           -192.3020   ZZ=           -189.1443
   XY=              9.9599   XZ=            -10.4163   YZ=             -4.2357

 ESP charges:
               1
     1  C    0.484780
     2  H    0.053958
     3  C   -0.441779
     4  H    0.141860
     5  H    0.147896
     6  C   -0.078522
     7  C    0.443502
     8  C   -0.138015
     9  H    0.040819
    10  H    0.074291
    11  C   -0.320619
    12  H    0.084550
    13  H    0.096339
    14  C   -0.296478
    15  H    0.183408
    16  C    0.347495
    17  H   -0.002739
    18  C    0.079980
    19  H    0.045203
    20  C   -0.356892
    21  H    0.070463
    22  C    0.053869
    23  H    0.014450
    24  H    0.017261
    25  C   -0.344366
    26  H    0.071848
    27  H    0.056962
    28  C    0.732891
    29  C   -0.162347
    30  H    0.013824
    31  C   -0.027847
    32  H    0.044702
    33  H    0.001824
    34  C   -0.289652
    35  H    0.070973
    36  H    0.058694
    37  C    0.084786
    38  H   -0.036805
    39  C   -0.638929
    40  H    0.130356
    41  H    0.145595
    42  H    0.122630
    43  C    0.282377
    44  H   -0.021221
    45  C   -0.489037
    46  H    0.100299
    47  H    0.111950
    48  H    0.104922
    49  C   -0.300969
    50  H    0.054192
    51  H    0.069449
    52  H    0.081105
    53  O   -0.293678
    54  O   -0.441630
    55  H    0.420013
    56  O   -0.724597
    57  H    0.413910
    58  C   -0.271363
    59  H    0.044900
    60  H    0.078898
    61  C   -0.024971
    62  H   -0.033814
    63  H    0.052532
    64  C   -0.107002
    65  H    0.021407
    66  H    0.031827
    67  C    0.420922
    68  H   -0.026983
    69  C   -0.461372
    70  H    0.111795
    71  H    0.107813
    72  H    0.089003
    73  C   -0.573633
    74  H    0.131329
    75  H    0.138261
    76  H    0.123150
 Sum of ESP charges =   0.00000

 Normal termination of Gaussian 09 at Thu Apr 27 15:46:56 2017.
