 Gaussian 09, Revision D.01,
 Gaussian 09:  EM64L-G09RevD.01 24-Apr-2013

 ----------------------------------------------------------------------
 #P HF/6-31G* SCF(Conver=6) NoSymm Test Pop=mk IOp(6/33=2) GFInput GFPr
 int
 ----------------------------------------------------------------------

 ----------------------------------------------
 MEP - Input generated by R.E.D.-III.x MOLECULE
 ----------------------------------------------
 Symbolic Z-matrix:
 Charge =  0 Multiplicity = 1

                          Input orientation:
 ---------------------------------------------------------------------
 Center     Atomic      Atomic             Coordinates (Angstroms)
 Number     Number       Type             X           Y           Z
 ---------------------------------------------------------------------
      1          6           0        0.998680   -0.898521   -1.688592
      2          1           0        1.155269    0.067869   -2.183276
      3          6           0        2.210540   -1.801376   -1.959659
      4          1           0        2.351832   -1.918273   -3.038775
      5          1           0        1.974826   -2.801567   -1.561080
      6          6           0        3.483953   -1.288680   -1.314599
      7          6           0        3.422451   -0.919336    0.171729
      8          6           0        2.127195   -0.085160    0.421434
      9          1           0        2.277413    0.918536    0.000000
     10          1           0        1.983927    0.049564    1.498533
     11          6           0        0.844235   -0.673791   -0.185253
     12          1           0        0.594644   -1.631110    0.296071
     13          1           0        0.000000    0.000000    0.000000
     14          6           0        4.608707   -1.182615   -2.034878
     15          1           0        4.592835   -1.432134   -3.096380
     16          6           0        5.945118   -0.750900   -1.507045
     17          1           0        6.236019    0.199897   -1.982748
     18          6           0        6.009758   -0.607586    0.021099
     19          1           0        6.167143   -1.613424    0.425542
     20          6           0        4.664032   -0.038477    0.551452
     21          1           0        4.514173    0.920633    0.028270
     22          6           0        4.743928    0.288290    2.060346
     23          1           0        4.776441   -0.641248    2.638974
     24          1           0        3.830800    0.806638    2.372802
     25          6           0        5.953829    1.158320    2.453402
     26          1           0        5.850504    2.153835    1.997700
     27          1           0        5.934550    1.309412    3.537461
     28          6           0        7.285069    0.537273    1.987220
     29          6           0        7.163072    0.315985    0.451496
     30          1           0        6.917360    1.310657    0.039205
     31          6           0        8.599144    0.000000    0.000000
     32          1           0        8.762886    0.224538   -1.057144
     33          1           0        8.817691   -1.065722    0.121966
     34          6           0        9.480420    0.870131    0.937436
     35          1           0       10.261390    0.261050    1.407877
     36          1           0        9.999845    1.659524    0.384483
     37          6           0        8.537878    1.479347    2.026010
     38          1           0        8.184551    2.456014    1.663053
     39          6           0        7.572558   -0.774689    2.752172
     40          1           0        6.807020   -1.535003    2.578318
     41          1           0        8.531877   -1.214478    2.464464
     42          1           0        7.606638   -0.591505    3.831459
     43          6           0        9.266680    1.724732    3.370778
     44          1           0        9.627821    0.749639    3.729041
     45          6           0        8.363026    2.309345    4.472857
     46          1           0        7.824117    3.200156    4.131161
     47          1           0        8.961560    2.598382    5.344984
     48          1           0        7.618144    1.587337    4.817047
     49          6           0        3.368302   -2.229750    1.001477
     50          1           0        3.178191   -2.023034    2.059170
     51          1           0        2.569223   -2.890493    0.654279
     52          1           0        4.306044   -2.786947    0.920799
     53          8           0        6.993413   -1.603471   -2.033724
     54          8           0        6.830520   -2.949057   -1.495844
     55          1           0        6.430359   -3.404552   -2.254597
     56          8           0       -0.190944   -1.412155   -2.293494
     57          1           0       -0.409106   -2.258662   -1.878732
     58          6           0       10.538446    2.597861    3.196607
     59          1           0       11.045972    2.641421    4.171033
     60          1           0       11.237830    2.090869    2.520258
     61          6           0       10.324448    4.035959    2.695121
     62          1           0        9.847478    4.014973    1.707630
     63          1           0        9.630773    4.560292    3.363445
     64          6           0       11.646955    4.815890    2.610515
     65          1           0       12.336727    4.267243    1.952795
     66          1           0       12.116625    4.818613    3.604899
     67          6           0       11.559995    6.277050    2.111253
     68          1           0       12.591035    6.660679    2.121792
     69          6           0       11.056053    6.379878    0.662051
     70          1           0       10.006955    6.074106    0.575802
     71          1           0       11.126175    7.411009    0.297146
     72          1           0       11.645549    5.746609   -0.011410
     73          6           0       10.735141    7.175564    3.047738
     74          1           0        9.675123    6.896486    3.045885
     75          1           0       10.796948    8.224556    2.736130
     76          1           0       11.095726    7.112448    4.081237
 ---------------------------------------------------------------------

 SCF Done:  E(RHF) =  -1273.68309201     A.U. after    9 cycles

 Alpha  occ. eigenvalues --  -20.62438 -20.62304 -20.56049 -11.28763 -11.28183
 Alpha  occ. eigenvalues --  -11.24919 -11.24416 -11.23231 -11.23150 -11.22952
 Alpha  occ. eigenvalues --  -11.22670 -11.22656 -11.22612 -11.22413 -11.22330
 Alpha  occ. eigenvalues --  -11.22174 -11.22038 -11.21930 -11.21733 -11.21635
 Alpha  occ. eigenvalues --  -11.21516 -11.21373 -11.21244 -11.21184 -11.20942
 Alpha  occ. eigenvalues --  -11.20939 -11.20885 -11.20817 -11.20764 -11.20394
 Alpha  occ. eigenvalues --   -1.45696  -1.35425  -1.22129  -1.15860  -1.13885
 Alpha  occ. eigenvalues --   -1.09522  -1.08011  -1.05897  -1.05652  -1.03049
 Alpha  occ. eigenvalues --   -1.01623  -0.99406  -0.97847  -0.96308  -0.92797
 Alpha  occ. eigenvalues --   -0.92300  -0.92125  -0.90824  -0.90487  -0.86036
 Alpha  occ. eigenvalues --   -0.84433  -0.83062  -0.82894  -0.78965  -0.78458
 Alpha  occ. eigenvalues --   -0.76812  -0.74597  -0.73777  -0.71658  -0.69407
 Alpha  occ. eigenvalues --   -0.69287  -0.67125  -0.65615  -0.65359  -0.64308
 Alpha  occ. eigenvalues --   -0.63899  -0.63386  -0.62818  -0.62062  -0.61907
 Alpha  occ. eigenvalues --   -0.60906  -0.60138  -0.59720  -0.58905  -0.58438
 Alpha  occ. eigenvalues --   -0.57854  -0.57229  -0.56509  -0.56091  -0.55578
 Alpha  occ. eigenvalues --   -0.55336  -0.54673  -0.54340  -0.53984  -0.53502
 Alpha  occ. eigenvalues --   -0.53300  -0.52841  -0.52685  -0.52186  -0.51720
 Alpha  occ. eigenvalues --   -0.51439  -0.51215  -0.50195  -0.50008  -0.48482
 Alpha  occ. eigenvalues --   -0.48345  -0.47926  -0.47431  -0.47298  -0.46903
 Alpha  occ. eigenvalues --   -0.46722  -0.46230  -0.45940  -0.45228  -0.44976
 Alpha  occ. eigenvalues --   -0.44701  -0.44438  -0.43433  -0.43283  -0.42852
 Alpha  occ. eigenvalues --   -0.42670  -0.42248  -0.41561  -0.40421  -0.38674
 Alpha  occ. eigenvalues --   -0.34423
 Alpha virt. eigenvalues --    0.16139   0.20687   0.21103   0.21524   0.22257
 Alpha virt. eigenvalues --    0.22754   0.22970   0.24226   0.24680   0.25195
 Alpha virt. eigenvalues --    0.25668   0.26134   0.26369   0.27043   0.27323

 Mulliken charges:
               1
     1  C    0.193922
     2  H    0.173812
     3  C   -0.368284
     4  H    0.191935
     5  H    0.155414
     6  C    0.083393
     7  C   -0.042123
     8  C   -0.327314
     9  H    0.165831
    10  H    0.174433
    11  C   -0.341364
    12  H    0.144959
    13  H    0.184005
    14  C   -0.279639
    15  H    0.185815
    16  C    0.190672
    17  H    0.186659
    18  C   -0.182450
    19  H    0.208698
    20  C   -0.168247
    21  H    0.156490
    22  C   -0.327915
    23  H    0.165127
    24  H    0.166848
    25  C   -0.297564
    26  H    0.151206
    27  H    0.164891
    28  C   -0.029088
    29  C   -0.168674
    30  H    0.146713
    31  C   -0.306261
    32  H    0.172551
    33  H    0.178577
    34  C   -0.338794
    35  H    0.160719
    36  H    0.164428
    37  C   -0.140955
    38  H    0.154903
    39  C   -0.488787
    40  H    0.163372
    41  H    0.170154
    42  H    0.160695
    43  C   -0.147266
    44  H    0.157621
    45  C   -0.486203
    46  H    0.156221
    47  H    0.157439
    48  H    0.160984
    49  C   -0.480736
    50  H    0.165839
    51  H    0.159960
    52  H    0.180293
    53  O   -0.393205
    54  O   -0.470594
    55  H    0.458929
    56  O   -0.759091
    57  H    0.428503
    58  C   -0.309271
    59  H    0.152054
    60  H    0.162089
    61  C   -0.321394
    62  H    0.159319
    63  H    0.159956
    64  C   -0.300145
    65  H    0.151661
    66  H    0.151040
    67  C   -0.146035
    68  H    0.155254
    69  C   -0.476164
    70  H    0.154863
    71  H    0.158099
    72  H    0.157194
    73  C   -0.476011
    74  H    0.155315
    75  H    0.157956
    76  H    0.156761
 Sum of Mulliken charges =   0.00000

 Dipole moment (field-independent basis, Debye):
    X=             -1.1497    Y=             -0.5729    Z=              1.1696  Tot=              1.7373
 Quadrupole moment (field-independent basis, Debye-Ang):
   XX=           -215.3770   YY=           -185.1243   ZZ=           -193.4803
   XY=              5.7613   XZ=             -0.5209   YZ=              1.6753

 ESP charges:
               1
     1  C    0.544221
     2  H    0.035667
     3  C   -0.440909
     4  H    0.128315
     5  H    0.127506
     6  C    0.175047
     7  C    0.166180
     8  C   -0.002620
     9  H    0.009842
    10  H    0.061566
    11  C   -0.354468
    12  H    0.086186
    13  H    0.091456
    14  C   -0.561766
    15  H    0.209117
    16  C    0.491851
    17  H    0.039794
    18  C   -0.277312
    19  H    0.144937
    20  C   -0.173727
    21  H    0.056735
    22  C    0.041931
    23  H    0.017972
    24  H    0.004109
    25  C   -0.232401
    26  H    0.028721
    27  H    0.046661
    28  C    0.457777
    29  C    0.282335
    30  H   -0.058734
    31  C   -0.364881
    32  H    0.089121
    33  H    0.121647
    34  C   -0.096289
    35  H    0.030515
    36  H    0.050707
    37  C    0.110851
    38  H   -0.080234
    39  C   -0.538409
    40  H    0.115877
    41  H    0.101549
    42  H    0.109864
    43  C    0.139730
    44  H    0.006193
    45  C   -0.412007
    46  H    0.075387
    47  H    0.105868
    48  H    0.090603
    49  C   -0.373824
    50  H    0.089913
    51  H    0.097984
    52  H    0.107406
    53  O   -0.337286
    54  O   -0.470151
    55  H    0.460525
    56  O   -0.741519
    57  H    0.418413
    58  C   -0.262492
    59  H    0.066012
    60  H    0.031869
    61  C    0.287548
    62  H   -0.022130
    63  H   -0.015241
    64  C   -0.391752
    65  H    0.075936
    66  H    0.070665
    67  C    0.440812
    68  H   -0.043526
    69  C   -0.425502
    70  H    0.093393
    71  H    0.094204
    72  H    0.091466
    73  C   -0.412843
    74  H    0.086283
    75  H    0.091203
    76  H    0.090552
 Sum of ESP charges =   0.00000

 Normal termination of Gaussian 09 at Thu Apr 27 15:41:27 2017.
