 Gaussian 09, Revision D.01,
 Gaussian 09:  EM64L-G09RevD.01 24-Apr-2013

 ----------------------------------------------------------------------
 #P HF/6-31G* SCF(Conver=6) NoSymm Test Pop=mk IOp(6/33=2) GFInput GFPr
 int
 ----------------------------------------------------------------------

 ----------------------------------------------
 MEP - Input generated by R.E.D.-III.x MOLECULE
 ----------------------------------------------
 Symbolic Z-matrix:
 Charge =  0 Multiplicity = 1

                          Input orientation:
 ---------------------------------------------------------------------
 Center     Atomic      Atomic             Coordinates (Angstroms)
 Number     Number       Type             X           Y           Z
 ---------------------------------------------------------------------
      1          6           0       -1.011037    1.982624    1.684873
      2          1           0       -0.992571    1.005092    2.182185
      3          6           0        0.315937    2.705685    1.953737
      4          1           0        0.474625    2.802670    3.032061
      5          1           0        0.224572    3.729257    1.554839
      6          6           0        1.502868    2.014086    1.309641
      7          6           0        1.386694    1.662007   -0.176799
      8          6           0       -0.010767    1.013299   -0.425179
      9          1           0        0.000000    0.000000    0.000000
     10          1           0       -0.173857    0.896430   -1.501792
     11          6           0       -1.197779    1.776947    0.181955
     12          1           0       -1.312366    2.758138   -0.302121
     13          1           0       -2.128319    1.227322    0.000000
     14          6           0        2.599649    1.750596    2.032063
     15          1           0        2.626924    2.013703    3.087125
     16          6           0        3.863983    1.141023    1.502319
     17          1           0        4.045089    0.167244    1.983378
     18          6           0        3.906463    0.990588   -0.027283
     19          1           0        4.209609    1.964626   -0.433299
     20          6           0        2.494240    0.622992   -0.563344
     21          1           0        2.213665   -0.311591   -0.050773
     22          6           0        2.537270    0.307492   -2.075934
     23          1           0        2.713872    1.229432   -2.640518
     24          1           0        1.558584   -0.062253   -2.400308
     25          6           0        3.604374   -0.729899   -2.474345
     26          1           0        3.350396   -1.703125   -2.029838
     27          1           0        3.569096   -0.865840   -3.559771
     28          6           0        5.012061   -0.321764   -1.995779
     29          6           0        4.912824   -0.092145   -0.459673
     30          1           0        4.518515   -1.039736   -0.053875
     31          6           0        6.376399    0.000000    0.000000
     32          1           0        6.494602   -0.241871    1.060774
     33          1           0        6.761241    1.016222   -0.131918
     34          6           0        7.113773   -1.012202   -0.917697
     35          1           0        8.007348   -0.558177   -1.361997
     36          1           0        7.461488   -1.878630   -0.347202
     37          6           0        6.105826   -1.444999   -2.036881
     38          1           0        5.605762   -2.369253   -1.705604
     39          6           0        5.503315    0.937552   -2.746566
     40          1           0        4.862289    1.804691   -2.568905
     41          1           0        6.517418    1.221722   -2.450374
     42          1           0        5.516365    0.762854   -3.827172
     43          6           0        6.816930   -1.774154   -3.374408
     44          1           0        7.373742   -0.874777   -3.676093
     45          6           0        5.845635   -2.131512   -4.514969
     46          1           0        5.172723   -2.943827   -4.213325
     47          1           0        6.394401   -2.473361   -5.397921
     48          1           0        5.228783   -1.283573   -4.823355
     49          6           0        1.509250    2.968952   -1.005153
     50          1           0        1.280972    2.795235   -2.061395
     51          1           0        0.816071    3.734926   -0.647874
     52          1           0        2.516474    3.390129   -0.934065
     53          8           0        4.992494    1.992661    1.825172
     54          8           0        5.176041    1.959886    3.272793
     55          1           0        6.039546    1.518402    3.327167
     56          8           0       -2.118062    2.659746    2.286567
     57          1           0       -2.190690    3.541911    1.895803
     58          6           0        7.854280   -2.924098   -3.184067
     59          1           0        7.996902   -3.127193   -2.117638
     60          1           0        7.441625   -3.851264   -3.606550
     61          6           0        9.247412   -2.671495   -3.793307
     62          1           0        9.672163   -1.762427   -3.342123
     63          1           0        9.903125   -3.496604   -3.488044
     64          6           0        9.283757   -2.530849   -5.322400
     65          1           0        8.623153   -1.707787   -5.624829
     66          1           0        8.869331   -3.441278   -5.782705
     67          6           0       10.681215   -2.264032   -5.920802
     68          1           0       11.100749   -1.386257   -5.405033
     69          6           0       11.649760   -3.439955   -5.713604
     70          1           0       11.262965   -4.349668   -6.191286
     71          1           0       12.627909   -3.223143   -6.157779
     72          1           0       11.812361   -3.662020   -4.654327
     73          6           0       10.570202   -1.919458   -7.414697
     74          1           0       10.150557   -2.761800   -7.979672
     75          1           0       11.551740   -1.688936   -7.844343
     76          1           0        9.920081   -1.052312   -7.578266
 ---------------------------------------------------------------------

 SCF Done:  E(RHF) =  -1273.67989875     A.U. after    9 cycles

 Alpha  occ. eigenvalues --  -20.62431 -20.62311 -20.55605 -11.28593 -11.27706
 Alpha  occ. eigenvalues --  -11.24650 -11.23632 -11.23336 -11.23094 -11.23064
 Alpha  occ. eigenvalues --  -11.22704 -11.22626 -11.22540 -11.22499 -11.22342
 Alpha  occ. eigenvalues --  -11.22306 -11.22253 -11.22071 -11.21870 -11.21853
 Alpha  occ. eigenvalues --  -11.21794 -11.21792 -11.21612 -11.21599 -11.21568
 Alpha  occ. eigenvalues --  -11.21465 -11.21231 -11.21166 -11.21127 -11.21072
 Alpha  occ. eigenvalues --   -1.45722  -1.34969  -1.22356  -1.15866  -1.13931
 Alpha  occ. eigenvalues --   -1.09788  -1.08147  -1.05878  -1.05474  -1.03186
 Alpha  occ. eigenvalues --   -1.01649  -0.99644  -0.98018  -0.96235  -0.93154
 Alpha  occ. eigenvalues --   -0.92498  -0.92178  -0.91363  -0.90799  -0.85848
 Alpha  occ. eigenvalues --   -0.84021  -0.82907  -0.82254  -0.79000  -0.78212
 Alpha  occ. eigenvalues --   -0.77049  -0.76072  -0.74762  -0.72532  -0.70873
 Alpha  occ. eigenvalues --   -0.67866  -0.66609  -0.66083  -0.65146  -0.64381
 Alpha  occ. eigenvalues --   -0.63624  -0.63447  -0.62491  -0.61714  -0.61483
 Alpha  occ. eigenvalues --   -0.60934  -0.60418  -0.59839  -0.59235  -0.58852
 Alpha  occ. eigenvalues --   -0.57823  -0.57287  -0.56619  -0.56086  -0.55763
 Alpha  occ. eigenvalues --   -0.55473  -0.54850  -0.54404  -0.53840  -0.53641
 Alpha  occ. eigenvalues --   -0.53567  -0.53160  -0.52864  -0.52641  -0.52266
 Alpha  occ. eigenvalues --   -0.52006  -0.50814  -0.50351  -0.49507  -0.48855
 Alpha  occ. eigenvalues --   -0.48391  -0.48110  -0.47852  -0.47333  -0.47118
 Alpha  occ. eigenvalues --   -0.46617  -0.46163  -0.45662  -0.45212  -0.44959
 Alpha  occ. eigenvalues --   -0.44754  -0.44688  -0.44283  -0.43673  -0.43602
 Alpha  occ. eigenvalues --   -0.42622  -0.42314  -0.41889  -0.40703  -0.38932
 Alpha  occ. eigenvalues --   -0.33826
 Alpha virt. eigenvalues --    0.17014   0.20482   0.21091   0.21701   0.22028
 Alpha virt. eigenvalues --    0.22809   0.22918   0.23721   0.24844   0.25114
 Alpha virt. eigenvalues --    0.25387   0.25888   0.26281   0.26725   0.27037

 Mulliken charges:
               1
     1  C    0.193720
     2  H    0.172300
     3  C   -0.366696
     4  H    0.195112
     5  H    0.154577
     6  C    0.069062
     7  C   -0.040990
     8  C   -0.326232
     9  H    0.164442
    10  H    0.171802
    11  C   -0.339501
    12  H    0.144630
    13  H    0.182362
    14  C   -0.249967
    15  H    0.212663
    16  C    0.189955
    17  H    0.166273
    18  C   -0.189588
    19  H    0.191546
    20  C   -0.164807
    21  H    0.158634
    22  C   -0.328788
    23  H    0.165593
    24  H    0.168823
    25  C   -0.298053
    26  H    0.152377
    27  H    0.166499
    28  C   -0.031852
    29  C   -0.163706
    30  H    0.151179
    31  C   -0.302124
    32  H    0.151232
    33  H    0.174792
    34  C   -0.337004
    35  H    0.162196
    36  H    0.165355
    37  C   -0.142887
    38  H    0.153087
    39  C   -0.489059
    40  H    0.164425
    41  H    0.167321
    42  H    0.163638
    43  C   -0.138863
    44  H    0.158042
    45  C   -0.489194
    46  H    0.154174
    47  H    0.166668
    48  H    0.158518
    49  C   -0.478115
    50  H    0.163866
    51  H    0.163449
    52  H    0.174155
    53  O   -0.394817
    54  O   -0.469530
    55  H    0.460473
    56  O   -0.759765
    57  H    0.428134
    58  C   -0.320094
    59  H    0.165529
    60  H    0.156221
    61  C   -0.308695
    62  H    0.149814
    63  H    0.157774
    64  C   -0.302197
    65  H    0.157750
    66  H    0.146811
    67  C   -0.146638
    68  H    0.151406
    69  C   -0.476632
    70  H    0.151974
    71  H    0.158833
    72  H    0.162325
    73  C   -0.472545
    74  H    0.152760
    75  H    0.158621
    76  H    0.157453
 Sum of Mulliken charges =   0.00000

 Dipole moment (field-independent basis, Debye):
    X=              1.1519    Y=             -1.1475    Z=             -2.1039  Tot=              2.6590
 Quadrupole moment (field-independent basis, Debye-Ang):
   XX=           -188.9940   YY=           -191.4103   ZZ=           -197.5496
   XY=             -8.6034   XZ=              5.2628   YZ=             -8.5699

 ESP charges:
               1
     1  C    0.520997
     2  H    0.046745
     3  C   -0.480799
     4  H    0.151797
     5  H    0.155989
     6  C   -0.082286
     7  C    0.433858
     8  C   -0.079845
     9  H    0.027913
    10  H    0.062632
    11  C   -0.343507
    12  H    0.083905
    13  H    0.096807
    14  C   -0.276993
    15  H    0.185563
    16  C    0.276746
    17  H    0.002132
    18  C    0.207892
    19  H    0.004770
    20  C   -0.410841
    21  H    0.061116
    22  C    0.177237
    23  H   -0.018260
    24  H   -0.022113
    25  C   -0.253945
    26  H    0.022434
    27  H    0.030928
    28  C    0.535021
    29  C   -0.029277
    30  H   -0.004610
    31  C   -0.182840
    32  H    0.071489
    33  H    0.037733
    34  C   -0.231467
    35  H    0.072929
    36  H    0.064755
    37  C    0.149053
    38  H   -0.063767
    39  C   -0.589152
    40  H    0.128737
    41  H    0.123072
    42  H    0.110250
    43  C    0.201007
    44  H   -0.002095
    45  C   -0.394740
    46  H    0.076259
    47  H    0.086511
    48  H    0.090893
    49  C   -0.332151
    50  H    0.059367
    51  H    0.078235
    52  H    0.091823
    53  O   -0.293699
    54  O   -0.443002
    55  H    0.425980
    56  O   -0.734202
    57  H    0.417168
    58  C   -0.271217
    59  H    0.052059
    60  H    0.085240
    61  C   -0.034983
    62  H    0.004058
    63  H    0.054792
    64  C   -0.135841
    65  H    0.041436
    66  H    0.053775
    67  C    0.375020
    68  H   -0.019729
    69  C   -0.439595
    70  H    0.106392
    71  H    0.105460
    72  H    0.085277
    73  C   -0.517815
    74  H    0.117890
    75  H    0.127315
    76  H    0.110314
 Sum of ESP charges =   0.00000

 Normal termination of Gaussian 09 at Thu Apr 27 16:06:31 2017.
