 Gaussian 09, Revision D.01,
 Gaussian 09:  EM64L-G09RevD.01 24-Apr-2013

 ----------------------------------------------------------------------
 #P HF/6-31G* SCF(Conver=6) NoSymm Test Pop=mk IOp(6/33=2) GFInput GFPr
 int
 ----------------------------------------------------------------------

 ----------------------------------------------
 MEP - Input generated by R.E.D.-III.x MOLECULE
 ----------------------------------------------
 Symbolic Z-matrix:
 Charge =  0 Multiplicity = 1

                          Input orientation:
 ---------------------------------------------------------------------
 Center     Atomic      Atomic             Coordinates (Angstroms)
 Number     Number       Type             X           Y           Z
 ---------------------------------------------------------------------
      1          6           0        0.998548   -0.913994   -1.680802
      2          1           0        1.158570    0.048980   -2.181104
      3          6           0        2.207612   -1.821818   -1.945254
      4          1           0        2.351659   -1.944682   -3.023002
      5          1           0        1.969250   -2.820018   -1.542926
      6          6           0        3.481192   -1.305845   -1.302038
      7          6           0        3.415703   -0.935419    0.183015
      8          6           0        2.125765   -0.091918    0.427809
      9          1           0        2.282340    0.908166    0.000000
     10          1           0        1.980180    0.050092    1.503911
     11          6           0        0.841807   -0.678588   -0.178841
     12          1           0        0.586434   -1.631416    0.308118
     13          1           0        0.000000    0.000000    0.000000
     14          6           0        4.605002   -1.205346   -2.023994
     15          1           0        4.594972   -1.473504   -3.078094
     16          6           0        5.943265   -0.781110   -1.495016
     17          1           0        6.261701    0.155320   -1.978929
     18          6           0        6.006145   -0.633063    0.034089
     19          1           0        6.166791   -1.638931    0.443968
     20          6           0        4.660751   -0.064448    0.566953
     21          1           0        4.517733    0.898334    0.049719
     22          6           0        4.746886    0.249155    2.078282
     23          1           0        4.786245   -0.685752    2.647714
     24          1           0        3.831810    0.758972    2.398395
     25          6           0        5.952910    1.122316    2.475300
     26          1           0        5.842797    2.121200    2.028878
     27          1           0        5.937114    1.263664    3.560651
     28          6           0        7.286453    0.512932    1.999633
     29          6           0        7.156027    0.296716    0.463931
     30          1           0        6.897661    1.289801    0.057909
     31          6           0        8.591816    0.000000    0.000000
     32          1           0        8.743240    0.243927   -1.056185
     33          1           0        8.823716   -1.064111    0.109516
     34          6           0        9.472603    0.871507    0.936778
     35          1           0       10.260166    0.264772    1.398964
     36          1           0        9.983181    1.667929    0.385829
     37          6           0        8.531133    1.466568    2.033707
     38          1           0        8.165731    2.440529    1.676112
     39          6           0        7.588882   -0.799236    2.758224
     40          1           0        6.824920   -1.562652    2.591018
     41          1           0        8.547930   -1.233524    2.460609
     42          1           0        7.632835   -0.618615    3.837442
     43          6           0        9.266047    1.712691    3.374980
     44          1           0        9.633953    0.738390    3.728366
     45          6           0        8.364084    2.289099    4.482653
     46          1           0        7.822922    3.180825    4.147063
     47          1           0        8.964406    2.574013    5.354801
     48          1           0        7.621508    1.564032    4.825037
     49          6           0        3.349188   -2.243373    1.016100
     50          1           0        3.149176   -2.034637    2.071730
     51          1           0        2.552683   -2.902886    0.661793
     52          1           0        4.285198   -2.805455    0.946275
     53          8           0        6.938775   -1.786068   -1.814281
     54          8           0        7.126513   -1.783700   -3.261678
     55          1           0        8.043515   -1.467968   -3.316098
     56          8           0       -0.193943   -1.426210   -2.282112
     57          1           0       -0.393730   -2.287253   -1.888569
     58          6           0       10.533691    2.593526    3.200480
     59          1           0       11.045393    2.618955    4.171476
     60          1           0       11.229401    2.098444    2.510981
     61          6           0       10.303021    4.033724    2.712660
     62          1           0        9.758226    4.013815    1.760218
     63          1           0        9.654454    4.570149    3.415879
     64          6           0       11.600101    4.834531    2.488175
     65          1           0       11.340460    5.801324    2.031706
     66          1           0       12.212513    4.304105    1.744520
     67          6           0       12.474562    5.111707    3.729813
     68          1           0       12.748808    4.147971    4.182031
     69          6           0       13.778659    5.810807    3.313110
     70          1           0       13.570402    6.786593    2.855541
     71          1           0       14.432150    5.981816    4.176189
     72          1           0       14.336689    5.213503    2.582876
     73          6           0       11.736515    5.939298    4.794054
     74          1           0       11.420728    6.907544    4.384017
     75          1           0       12.386037    6.139407    5.653814
     76          1           0       10.843096    5.429364    5.168637
 ---------------------------------------------------------------------

 SCF Done:  E(RHF) =  -1273.68268639     A.U. after    9 cycles

 Alpha  occ. eigenvalues --  -20.62435 -20.62315 -20.55610 -11.28598 -11.27712
 Alpha  occ. eigenvalues --  -11.24660 -11.23638 -11.23352 -11.23105 -11.23073
 Alpha  occ. eigenvalues --  -11.22712 -11.22619 -11.22522 -11.22503 -11.22313
 Alpha  occ. eigenvalues --  -11.22255 -11.22246 -11.22093 -11.21877 -11.21860
 Alpha  occ. eigenvalues --  -11.21825 -11.21705 -11.21643 -11.21610 -11.21571
 Alpha  occ. eigenvalues --  -11.21470 -11.21243 -11.21181 -11.21146 -11.21134
 Alpha  occ. eigenvalues --   -1.45729  -1.34974  -1.22359  -1.15885  -1.13957
 Alpha  occ. eigenvalues --   -1.09844  -1.08148  -1.05887  -1.05482  -1.03194
 Alpha  occ. eigenvalues --   -1.01578  -0.99657  -0.98007  -0.96267  -0.93164
 Alpha  occ. eigenvalues --   -0.92507  -0.92142  -0.91208  -0.90839  -0.85859
 Alpha  occ. eigenvalues --   -0.84243  -0.83075  -0.82825  -0.79582  -0.78301
 Alpha  occ. eigenvalues --   -0.77051  -0.75702  -0.73617  -0.72004  -0.70755
 Alpha  occ. eigenvalues --   -0.67863  -0.66615  -0.66163  -0.65174  -0.64729
 Alpha  occ. eigenvalues --   -0.63813  -0.63542  -0.62556  -0.62299  -0.61545
 Alpha  occ. eigenvalues --   -0.60864  -0.60532  -0.59699  -0.59095  -0.58090
 Alpha  occ. eigenvalues --   -0.57766  -0.57457  -0.56668  -0.56289  -0.55807
 Alpha  occ. eigenvalues --   -0.55643  -0.55005  -0.54174  -0.54070  -0.53874
 Alpha  occ. eigenvalues --   -0.53717  -0.53430  -0.53057  -0.52738  -0.52224
 Alpha  occ. eigenvalues --   -0.50884  -0.50784  -0.50022  -0.49888  -0.49397
 Alpha  occ. eigenvalues --   -0.48504  -0.48198  -0.48013  -0.47421  -0.47272
 Alpha  occ. eigenvalues --   -0.46536  -0.46150  -0.45425  -0.45156  -0.44979
 Alpha  occ. eigenvalues --   -0.44882  -0.44519  -0.44137  -0.43823  -0.43421
 Alpha  occ. eigenvalues --   -0.42476  -0.42247  -0.41962  -0.40717  -0.39063
 Alpha  occ. eigenvalues --   -0.33832
 Alpha virt. eigenvalues --    0.17010   0.20276   0.20861   0.21532   0.21959
 Alpha virt. eigenvalues --    0.22591   0.22969   0.23701   0.24415   0.25021
 Alpha virt. eigenvalues --    0.25337   0.25802   0.26130   0.26914   0.27002

 Mulliken charges:
               1
     1  C    0.193731
     2  H    0.172292
     3  C   -0.366694
     4  H    0.195122
     5  H    0.154582
     6  C    0.069002
     7  C   -0.040950
     8  C   -0.326253
     9  H    0.164433
    10  H    0.171792
    11  C   -0.339501
    12  H    0.144615
    13  H    0.182367
    14  C   -0.249998
    15  H    0.212676
    16  C    0.189892
    17  H    0.166280
    18  C   -0.189186
    19  H    0.191596
    20  C   -0.164925
    21  H    0.158616
    22  C   -0.328850
    23  H    0.165671
    24  H    0.168877
    25  C   -0.298174
    26  H    0.152367
    27  H    0.165752
    28  C   -0.029582
    29  C   -0.163785
    30  H    0.150979
    31  C   -0.302464
    32  H    0.150863
    33  H    0.175651
    34  C   -0.338512
    35  H    0.162011
    36  H    0.165489
    37  C   -0.141293
    38  H    0.156880
    39  C   -0.489145
    40  H    0.164591
    41  H    0.167625
    42  H    0.163150
    43  C   -0.147413
    44  H    0.157907
    45  C   -0.487385
    46  H    0.157775
    47  H    0.158071
    48  H    0.162108
    49  C   -0.478063
    50  H    0.163829
    51  H    0.163479
    52  H    0.174221
    53  O   -0.394814
    54  O   -0.469406
    55  H    0.460458
    56  O   -0.759752
    57  H    0.428144
    58  C   -0.314530
    59  H    0.157940
    60  H    0.160082
    61  C   -0.319139
    62  H    0.158408
    63  H    0.160334
    64  C   -0.297623
    65  H    0.150837
    66  H    0.151035
    67  C   -0.152412
    68  H    0.156579
    69  C   -0.471802
    70  H    0.152339
    71  H    0.158383
    72  H    0.157713
    73  C   -0.476814
    74  H    0.152184
    75  H    0.158648
    76  H    0.161085
 Sum of Mulliken charges =   0.00000

 Dipole moment (field-independent basis, Debye):
    X=              1.2360    Y=              0.9108    Z=              2.1977  Tot=              2.6809
 Quadrupole moment (field-independent basis, Debye-Ang):
   XX=           -181.9751   YY=           -193.3376   ZZ=           -196.1352
   XY=             10.2101   XZ=             -0.3804   YZ=             -5.9499

 ESP charges:
               1
     1  C    0.503299
     2  H    0.047374
     3  C   -0.455387
     4  H    0.141915
     5  H    0.144985
     6  C    0.005426
     7  C    0.343246
     8  C   -0.120063
     9  H    0.041131
    10  H    0.076983
    11  C   -0.329969
    12  H    0.085439
    13  H    0.096503
    14  C   -0.375450
    15  H    0.203352
    16  C    0.341353
    17  H   -0.004455
    18  C    0.255593
    19  H   -0.003975
    20  C   -0.314244
    21  H    0.031679
    22  C    0.163270
    23  H   -0.023448
    24  H   -0.019988
    25  C   -0.272889
    26  H    0.029582
    27  H    0.039549
    28  C    0.567215
    29  C   -0.135695
    30  H    0.022875
    31  C   -0.370309
    32  H    0.107923
    33  H    0.082987
    34  C    0.012927
    35  H    0.005461
    36  H    0.018308
    37  C    0.197044
    38  H   -0.100585
    39  C   -0.619823
    40  H    0.135666
    41  H    0.131020
    42  H    0.123179
    43  C    0.139066
    44  H   -0.022074
    45  C   -0.379333
    46  H    0.072486
    47  H    0.096641
    48  H    0.079809
    49  C   -0.310329
    50  H    0.059946
    51  H    0.077321
    52  H    0.081591
    53  O   -0.297827
    54  O   -0.448765
    55  H    0.429210
    56  O   -0.729760
    57  H    0.415599
    58  C   -0.200523
    59  H    0.067714
    60  H    0.018094
    61  C    0.028872
    62  H    0.028736
    63  H    0.020696
    64  C   -0.290033
    65  H    0.051916
    66  H    0.066468
    67  C    0.558186
    68  H   -0.076633
    69  C   -0.490688
    70  H    0.106867
    71  H    0.109017
    72  H    0.094091
    73  C   -0.462288
    74  H    0.102862
    75  H    0.091594
    76  H    0.102466
 Sum of ESP charges =   0.00000

 Normal termination of Gaussian 09 at Thu Apr 27 16:20:13 2017.
