 Gaussian 09, Revision D.01,
 Gaussian 09:  EM64L-G09RevD.01 24-Apr-2013

 ----------------------------------------------------------------------
 #P HF/6-31G* SCF(Conver=6) NoSymm Test Pop=mk IOp(6/33=2) GFInput GFPr
 int
 ----------------------------------------------------------------------

 ----------------------------------------------
 MEP - Input generated by R.E.D.-III.x MOLECULE
 ----------------------------------------------
 Symbolic Z-matrix:
 Charge =  0 Multiplicity = 1

                          Input orientation:
 ---------------------------------------------------------------------
 Center     Atomic      Atomic             Coordinates (Angstroms)
 Number     Number       Type             X           Y           Z
 ---------------------------------------------------------------------
      1          6           0        0.996859   -0.897953   -1.690475
      2          1           0        1.151373    0.069319   -2.184187
      3          6           0        2.208823   -1.798860   -1.965183
      4          1           0        2.350333   -1.912939   -3.044220
      5          1           0        1.975720   -2.801065   -1.569749
      6          6           0        3.482250   -1.282993   -1.321467
      7          6           0        3.419411   -0.924933    0.166782
      8          6           0        2.127342   -0.087539    0.420989
      9          1           0        2.279565    0.916109    0.000000
     10          1           0        1.983965    0.046157    1.498416
     11          6           0        0.843668   -0.674243   -0.186346
     12          1           0        0.593198   -1.631561    0.294290
     13          1           0        0.000000    0.000000    0.000000
     14          6           0        4.603561   -1.171719   -2.045724
     15          1           0        4.591618   -1.430629   -3.102100
     16          6           0        5.941802   -0.747474   -1.516516
     17          1           0        6.254794    0.195858   -1.990452
     18          6           0        6.008440   -0.617374    0.014124
     19          1           0        6.167065   -1.628815    0.409956
     20          6           0        4.663045   -0.053842    0.555150
     21          1           0        4.517474    0.912263    0.044748
     22          6           0        4.747298    0.251404    2.069283
     23          1           0        4.791372   -0.685542    2.634660
     24          1           0        3.829713    0.755714    2.390782
     25          6           0        5.949783    1.129263    2.465831
     26          1           0        5.831544    2.126786    2.020006
     27          1           0        5.941725    1.268702    3.553237
     28          6           0        7.282559    0.522311    1.989698
     29          6           0        7.160495    0.306126    0.451252
     30          1           0        6.908577    1.298523    0.040718
     31          6           0        8.601545    0.000000    0.000000
     32          1           0        8.764320    0.246871   -1.053748
     33          1           0        8.822488   -1.066682    0.107299
     34          6           0        9.482281    0.860481    0.949507
     35          1           0       10.250262    0.243732    1.427197
     36          1           0       10.016731    1.650183    0.409829
     37          6           0        8.519841    1.486131    2.007209
     38          1           0        8.143104    2.415885    1.558289
     39          6           0        7.559308   -0.804358    2.734705
     40          1           0        6.840553   -1.583017    2.467393
     41          1           0        8.555032   -1.200359    2.520150
     42          1           0        7.487430   -0.661170    3.816536
     43          6           0        9.256201    1.941702    3.299997
     44          1           0       10.091445    2.548401    2.918303
     45          6           0        9.908466    0.837366    4.156507
     46          1           0        9.174822    0.298089    4.762879
     47          1           0       10.629410    1.288040    4.848015
     48          1           0       10.451468    0.101598    3.556270
     49          6           0        3.358932   -2.239514    0.989839
     50          1           0        3.159891   -2.039766    2.047393
     51          1           0        2.564319   -2.899117    0.631621
     52          1           0        4.296813   -2.797711    0.914345
     53          8           0        6.940383   -1.744471   -1.850523
     54          8           0        7.122300   -1.725387   -3.298592
     55          1           0        8.038782   -1.408161   -3.352922
     56          8           0       -0.195332   -1.410606   -2.292017
     57          1           0       -0.390172   -2.275538   -1.904564
     58          6           0        8.425770    2.863389    4.226856
     59          1           0        7.581166    2.293088    4.634143
     60          1           0        9.056609    3.111827    5.092633
     61          6           0        7.894235    4.184204    3.637601
     62          1           0        7.214505    3.983582    2.799446
     63          1           0        7.279581    4.662113    4.410433
     64          6           0        8.985485    5.162789    3.176738
     65          1           0        9.595647    4.684733    2.399202
     66          1           0        9.668869    5.366805    4.015835
     67          6           0        8.468732    6.505699    2.618652
     68          1           0        7.740057    6.277138    1.825294
     69          6           0        7.755246    7.355161    3.683155
     70          1           0        8.437022    7.592876    4.510170
     71          1           0        7.407707    8.303434    3.257634
     72          1           0        6.883229    6.845612    4.104871
     73          6           0        9.618675    7.302275    1.981631
     74          1           0       10.381466    7.552869    2.730031
     75          1           0        9.259608    8.242233    1.547269
     76          1           0       10.109068    6.730217    1.185636
 ---------------------------------------------------------------------

 SCF Done:  E(RHF) =  -1273.67666311     A.U. after    9 cycles

 Alpha  occ. eigenvalues --  -20.62440 -20.62319 -20.55618 -11.28609 -11.27721
 Alpha  occ. eigenvalues --  -11.24676 -11.23648 -11.23397 -11.23138 -11.23084
 Alpha  occ. eigenvalues --  -11.22726 -11.22722 -11.22689 -11.22513 -11.22324
 Alpha  occ. eigenvalues --  -11.22321 -11.22275 -11.22124 -11.21905 -11.21886
 Alpha  occ. eigenvalues --  -11.21870 -11.21773 -11.21718 -11.21662 -11.21562
 Alpha  occ. eigenvalues --  -11.21494 -11.21243 -11.21202 -11.21089 -11.21049
 Alpha  occ. eigenvalues --   -1.45733  -1.34982  -1.22366  -1.15871  -1.13922
 Alpha  occ. eigenvalues --   -1.09803  -1.08147  -1.05959  -1.05497  -1.03187
 Alpha  occ. eigenvalues --   -1.01657  -0.99809  -0.97978  -0.96316  -0.92798
 Alpha  occ. eigenvalues --   -0.92570  -0.92521  -0.91512  -0.90705  -0.85868
 Alpha  occ. eigenvalues --   -0.84094  -0.82937  -0.82774  -0.79051  -0.78399
 Alpha  occ. eigenvalues --   -0.76965  -0.76254  -0.74443  -0.71988  -0.70540
 Alpha  occ. eigenvalues --   -0.67909  -0.66621  -0.65584  -0.65216  -0.64993
 Alpha  occ. eigenvalues --   -0.63614  -0.63329  -0.62849  -0.61877  -0.61479
 Alpha  occ. eigenvalues --   -0.60592  -0.60557  -0.59906  -0.59281  -0.59164
 Alpha  occ. eigenvalues --   -0.57955  -0.57562  -0.56523  -0.55974  -0.55842
 Alpha  occ. eigenvalues --   -0.55459  -0.54803  -0.54560  -0.53986  -0.53847
 Alpha  occ. eigenvalues --   -0.53510  -0.53218  -0.52986  -0.52733  -0.52264
 Alpha  occ. eigenvalues --   -0.51428  -0.50621  -0.50177  -0.49497  -0.48698
 Alpha  occ. eigenvalues --   -0.48646  -0.48412  -0.47843  -0.47691  -0.47338
 Alpha  occ. eigenvalues --   -0.46991  -0.46217  -0.45537  -0.45426  -0.45184
 Alpha  occ. eigenvalues --   -0.44958  -0.44620  -0.43945  -0.43651  -0.43044
 Alpha  occ. eigenvalues --   -0.42544  -0.42290  -0.41922  -0.40666  -0.38966
 Alpha  occ. eigenvalues --   -0.33841
 Alpha virt. eigenvalues --    0.17000   0.19925   0.20807   0.21418   0.22080
 Alpha virt. eigenvalues --    0.22433   0.22969   0.23666   0.24664   0.24885
 Alpha virt. eigenvalues --    0.24960   0.25603   0.26174   0.26867   0.27099

 Mulliken charges:
               1
     1  C    0.193740
     2  H    0.172287
     3  C   -0.366718
     4  H    0.195166
     5  H    0.154618
     6  C    0.069038
     7  C   -0.041003
     8  C   -0.326315
     9  H    0.164343
    10  H    0.171800
    11  C   -0.339471
    12  H    0.144691
    13  H    0.182377
    14  C   -0.250278
    15  H    0.212828
    16  C    0.191275
    17  H    0.166108
    18  C   -0.190558
    19  H    0.191882
    20  C   -0.164867
    21  H    0.158324
    22  C   -0.328733
    23  H    0.167115
    24  H    0.168892
    25  C   -0.302105
    26  H    0.154172
    27  H    0.163886
    28  C   -0.024197
    29  C   -0.166220
    30  H    0.150673
    31  C   -0.301654
    32  H    0.150904
    33  H    0.175719
    34  C   -0.331545
    35  H    0.162311
    36  H    0.161840
    37  C   -0.153690
    38  H    0.158249
    39  C   -0.485964
    40  H    0.163596
    41  H    0.168530
    42  H    0.162054
    43  C   -0.148204
    44  H    0.158238
    45  C   -0.481755
    46  H    0.156614
    47  H    0.159049
    48  H    0.160921
    49  C   -0.477940
    50  H    0.163911
    51  H    0.163504
    52  H    0.174138
    53  O   -0.394953
    54  O   -0.469430
    55  H    0.460530
    56  O   -0.759731
    57  H    0.428158
    58  C   -0.303448
    59  H    0.155652
    60  H    0.153535
    61  C   -0.317199
    62  H    0.155301
    63  H    0.160061
    64  C   -0.300453
    65  H    0.155557
    66  H    0.147619
    67  C   -0.146354
    68  H    0.150006
    69  C   -0.476433
    70  H    0.152388
    71  H    0.158915
    72  H    0.162074
    73  C   -0.472390
    74  H    0.153345
    75  H    0.158679
    76  H    0.156992
 Sum of Mulliken charges =   0.00000

 Dipole moment (field-independent basis, Debye):
    X=              1.1691    Y=              1.0555    Z=              2.1514  Tot=              2.6664
 Quadrupole moment (field-independent basis, Debye-Ang):
   XX=           -182.8093   YY=           -192.6727   ZZ=           -196.4852
   XY=             12.2545   XZ=             -1.1432   YZ=             -5.1825

 ESP charges:
               1
     1  C    0.506443
     2  H    0.046858
     3  C   -0.457817
     4  H    0.143323
     5  H    0.145806
     6  C   -0.018493
     7  C    0.397522
     8  C   -0.116960
     9  H    0.043515
    10  H    0.075330
    11  C   -0.340406
    12  H    0.087480
    13  H    0.098807
    14  C   -0.347727
    15  H    0.198849
    16  C    0.298519
    17  H    0.002627
    18  C    0.362345
    19  H   -0.023665
    20  C   -0.437983
    21  H    0.059228
    22  C    0.116302
    23  H    0.000369
    24  H    0.002451
    25  C   -0.347530
    26  H    0.075632
    27  H    0.052834
    28  C    0.742406
    29  C   -0.227576
    30  H    0.008594
    31  C   -0.089977
    32  H    0.061552
    33  H    0.016241
    34  C   -0.245331
    35  H    0.066507
    36  H    0.054597
    37  C    0.030188
    38  H   -0.006416
    39  C   -0.663307
    40  H    0.132286
    41  H    0.156626
    42  H    0.129930
    43  C    0.277841
    44  H   -0.004637
    45  C   -0.536920
    46  H    0.116073
    47  H    0.125263
    48  H    0.119692
    49  C   -0.314382
    50  H    0.059907
    51  H    0.075565
    52  H    0.084792
    53  O   -0.307109
    54  O   -0.440684
    55  H    0.424674
    56  O   -0.729686
    57  H    0.415667
    58  C   -0.320670
    59  H    0.064080
    60  H    0.097750
    61  C   -0.040135
    62  H   -0.024469
    63  H    0.061020
    64  C   -0.126268
    65  H    0.025943
    66  H    0.039260
    67  C    0.410304
    68  H   -0.035159
    69  C   -0.407605
    70  H    0.095764
    71  H    0.093339
    72  H    0.075936
    73  C   -0.496376
    74  H    0.110491
    75  H    0.117485
    76  H    0.103271
 Sum of ESP charges =   0.00000

 Normal termination of Gaussian 09 at Thu Apr 27 15:50:12 2017.
