 Gaussian 09, Revision D.01,
 Gaussian 09:  EM64L-G09RevD.01 24-Apr-2013

 ----------------------------------------------------------------------
 #P HF/6-31G* SCF(Conver=6) NoSymm Test Pop=mk IOp(6/33=2) GFInput GFPr
 int
 ----------------------------------------------------------------------

 ----------------------------------------------
 MEP - Input generated by R.E.D.-III.x MOLECULE
 ----------------------------------------------
 Symbolic Z-matrix:
 Charge =  0 Multiplicity = 1

                          Input orientation:
 ---------------------------------------------------------------------
 Center     Atomic      Atomic             Coordinates (Angstroms)
 Number     Number       Type             X           Y           Z
 ---------------------------------------------------------------------
      1          6           0        7.516995    2.215876    0.069936
      2          1           0        7.355138    2.185439    1.154380
      3          6           0        6.821757    1.007692   -0.573614
      4          1           0        7.204575    0.081617   -0.133208
      5          1           0        7.103459    0.991439   -1.639086
      6          6           0        5.310832    1.062697   -0.452581
      7          6           0        4.615728    2.361119   -0.877103
      8          6           0        5.409427    3.565456   -0.281071
      9          1           0        5.211362    3.607803    0.799005
     10          1           0        5.023933    4.499182   -0.703364
     11          6           0        6.930701    3.511400   -0.488928
     12          1           0        7.175897    3.583182   -1.559066
     13          1           0        7.405530    4.369611    0.000000
     14          6           0        4.631842    0.000000    0.000000
     15          1           0        5.175892   -0.890858    0.315736
     16          6           0        3.138634   -0.100231    0.107486
     17          1           0        2.854159   -0.196111    1.168035
     18          6           0        2.374415    1.069396   -0.531347
     19          1           0        2.316448    0.858774   -1.604749
     20          6           0        3.155912    2.393111   -0.303438
     21          1           0        3.271855    2.492262    0.788734
     22          6           0        2.339664    3.617881   -0.775064
     23          1           0        2.291023    3.630955   -1.869307
     24          1           0        2.857038    4.538779   -0.484488
     25          6           0        0.904605    3.671319   -0.215977
     26          1           0        0.942789    3.809994    0.874303
     27          1           0        0.408033    4.557166   -0.623799
     28          6           0        0.118228    2.380765   -0.521801
     29          6           0        0.956687    1.201666    0.052924
     30          1           0        1.095583    1.444390    1.121432
     31          6           0        0.000000    0.000000    0.000000
     32          1           0        0.274647   -0.785816    0.708292
     33          1           0        0.016944   -0.464149   -0.991357
     34          6           0       -1.386881    0.623173    0.312401
     35          1           0       -2.133276    0.300406   -0.423448
     36          1           0       -1.756796    0.295644    1.288794
     37          6           0       -1.219768    2.180241    0.272587
     38          1           0       -1.017933    2.527143    1.298818
     39          6           0       -0.132536    2.237871   -2.040797
     40          1           0        0.796403    2.163500   -2.611769
     41          1           0       -0.724496    1.348420   -2.275145
     42          1           0       -0.679792    3.104881   -2.425246
     43          6           0       -2.508701    2.905070   -0.195793
     44          1           0       -2.765623    2.520365   -1.194698
     45          6           0       -2.347636    4.431806   -0.302731
     46          1           0       -2.014196    4.858876    0.651682
     47          1           0       -3.294311    4.911884   -0.567769
     48          1           0       -1.622140    4.718112   -1.067205
     49          6           0        4.629342    2.441746   -2.426939
     50          1           0        4.275474    3.416191   -2.777470
     51          1           0        5.637964    2.303409   -2.825898
     52          1           0        3.998174    1.665078   -2.868318
     53          8           0        2.686042   -1.392241   -0.371484
     54          8           0        2.936017   -1.484798   -1.805054
     55          1           0        3.732220   -2.040859   -1.818767
     56          8           0        8.938179    2.147929   -0.073300
     57          1           0        9.157954    2.200957   -1.014090
     58          6           0       -3.689288    2.554093    0.744284
     59          1           0       -3.726205    1.467901    0.887777
     60          1           0       -3.483179    2.984890    1.734958
     61          6           0       -5.074526    3.006391    0.251364
     62          1           0       -5.141220    4.100306    0.237371
     63          1           0       -5.196128    2.685391   -0.793001
     64          6           0       -6.249876    2.431668    1.063674
     65          1           0       -6.213003    1.334327    1.003051
     66          1           0       -7.191433    2.730540    0.579300
     67          6           0       -6.325967    2.833958    2.552080
     68          1           0       -5.392745    2.520011    3.041287
     69          6           0       -6.470907    4.352088    2.743110
     70          1           0       -7.379437    4.721579    2.249747
     71          1           0       -6.543968    4.607332    3.806461
     72          1           0       -5.620041    4.903734    2.330346
     73          6           0       -7.480438    2.091301    3.243767
     74          1           0       -8.445314    2.368120    2.799563
     75          1           0       -7.525718    2.331934    4.312100
     76          1           0       -7.370396    1.004877    3.148917
 ---------------------------------------------------------------------

 SCF Done:  E(RHF) =  -1273.68359402     A.U. after    9 cycles

 Alpha  occ. eigenvalues --  -20.62444 -20.62309 -20.56054 -11.28774 -11.28190
 Alpha  occ. eigenvalues --  -11.24921 -11.24426 -11.23226 -11.23160 -11.22955
 Alpha  occ. eigenvalues --  -11.22674 -11.22664 -11.22661 -11.22334 -11.22283
 Alpha  occ. eigenvalues --  -11.22219 -11.22044 -11.21929 -11.21860 -11.21648
 Alpha  occ. eigenvalues --  -11.21520 -11.21420 -11.21363 -11.21178 -11.20933
 Alpha  occ. eigenvalues --  -11.20915 -11.20906 -11.20773 -11.20772 -11.20380
 Alpha  occ. eigenvalues --   -1.45704  -1.35431  -1.22131  -1.15865  -1.13880
 Alpha  occ. eigenvalues --   -1.09615  -1.08064  -1.05904  -1.05681  -1.03063
 Alpha  occ. eigenvalues --   -1.01666  -0.99438  -0.97886  -0.96303  -0.92819
 Alpha  occ. eigenvalues --   -0.92290  -0.92154  -0.90883  -0.90465  -0.86042
 Alpha  occ. eigenvalues --   -0.84028  -0.82925  -0.82461  -0.79115  -0.78486
 Alpha  occ. eigenvalues --   -0.76957  -0.75045  -0.74028  -0.72110  -0.69387
 Alpha  occ. eigenvalues --   -0.69356  -0.67141  -0.65636  -0.65309  -0.64670
 Alpha  occ. eigenvalues --   -0.63953  -0.63505  -0.62817  -0.61613  -0.61438
 Alpha  occ. eigenvalues --   -0.61117  -0.60077  -0.59743  -0.58818  -0.58010
 Alpha  occ. eigenvalues --   -0.57868  -0.57080  -0.56380  -0.56129  -0.55726
 Alpha  occ. eigenvalues --   -0.55429  -0.54724  -0.54201  -0.54015  -0.53850
 Alpha  occ. eigenvalues --   -0.53153  -0.52993  -0.52912  -0.52516  -0.52086
 Alpha  occ. eigenvalues --   -0.51432  -0.50187  -0.50094  -0.49726  -0.48815
 Alpha  occ. eigenvalues --   -0.48381  -0.47872  -0.47423  -0.47301  -0.46970
 Alpha  occ. eigenvalues --   -0.46697  -0.46076  -0.45975  -0.45443  -0.45073
 Alpha  occ. eigenvalues --   -0.44658  -0.44316  -0.43406  -0.43302  -0.43176
 Alpha  occ. eigenvalues --   -0.42670  -0.42490  -0.41602  -0.40447  -0.38613
 Alpha  occ. eigenvalues --   -0.34433
 Alpha virt. eigenvalues --    0.16129   0.20791   0.21290   0.21633   0.22194
 Alpha virt. eigenvalues --    0.22930   0.23020   0.24445   0.24925   0.25365
 Alpha virt. eigenvalues --    0.25709   0.26186   0.26565   0.26946   0.27310

 Mulliken charges:
               1
     1  C    0.193938
     2  H    0.173819
     3  C   -0.368320
     4  H    0.191946
     5  H    0.155436
     6  C    0.083583
     7  C   -0.042183
     8  C   -0.327345
     9  H    0.165847
    10  H    0.174457
    11  C   -0.341370
    12  H    0.145005
    13  H    0.184017
    14  C   -0.279785
    15  H    0.185818
    16  C    0.190477
    17  H    0.186688
    18  C   -0.182513
    19  H    0.208768
    20  C   -0.168213
    21  H    0.156548
    22  C   -0.327839
    23  H    0.165083
    24  H    0.166884
    25  C   -0.297730
    26  H    0.151510
    27  H    0.164980
    28  C   -0.030754
    29  C   -0.168882
    30  H    0.147037
    31  C   -0.306150
    32  H    0.173350
    33  H    0.177676
    34  C   -0.339208
    35  H    0.159869
    36  H    0.165277
    37  C   -0.134950
    38  H    0.150519
    39  C   -0.488113
    40  H    0.163154
    41  H    0.170042
    42  H    0.161160
    43  C   -0.148832
    44  H    0.153226
    45  C   -0.485733
    46  H    0.151685
    47  H    0.164329
    48  H    0.161569
    49  C   -0.480801
    50  H    0.165839
    51  H    0.159946
    52  H    0.180381
    53  O   -0.393164
    54  O   -0.470522
    55  H    0.458900
    56  O   -0.759092
    57  H    0.428506
    58  C   -0.311856
    59  H    0.166324
    60  H    0.150432
    61  C   -0.312950
    62  H    0.158198
    63  H    0.154596
    64  C   -0.298459
    65  H    0.151944
    66  H    0.150453
    67  C   -0.151786
    68  H    0.157129
    69  C   -0.476701
    70  H    0.151800
    71  H    0.157945
    72  H    0.161352
    73  C   -0.471883
    74  H    0.152069
    75  H    0.157688
    76  H    0.157938
 Sum of Mulliken charges =   0.00000

 Dipole moment (field-independent basis, Debye):
    X=              0.7687    Y=              1.1976    Z=             -1.0684  Tot=              1.7795
 Quadrupole moment (field-independent basis, Debye-Ang):
   XX=           -199.5265   YY=           -188.2030   ZZ=           -188.2919
   XY=             -0.3203   XZ=            -13.9121   YZ=             -3.3123

 ESP charges:
               1
     1  C    0.512840
     2  H    0.047768
     3  C   -0.411569
     4  H    0.127913
     5  H    0.125177
     6  C    0.087469
     7  C    0.281313
     8  C   -0.041676
     9  H    0.016784
    10  H    0.061519
    11  C   -0.368136
    12  H    0.091403
    13  H    0.101138
    14  C   -0.525292
    15  H    0.200217
    16  C    0.498474
    17  H    0.032834
    18  C   -0.269171
    19  H    0.143699
    20  C   -0.192324
    21  H    0.049288
    22  C    0.052485
    23  H    0.012349
    24  H   -0.001736
    25  C   -0.214962
    26  H    0.021741
    27  H    0.036687
    28  C    0.517651
    29  C    0.294655
    30  H   -0.069389
    31  C   -0.272256
    32  H    0.072175
    33  H    0.090431
    34  C   -0.116834
    35  H    0.048441
    36  H    0.052926
    37  C   -0.166416
    38  H    0.013854
    39  C   -0.543043
    40  H    0.106464
    41  H    0.114836
    42  H    0.113897
    43  C    0.151537
    44  H    0.010700
    45  C   -0.464787
    46  H    0.102051
    47  H    0.103428
    48  H    0.115252
    49  C   -0.320914
    50  H    0.067831
    51  H    0.079553
    52  H    0.085787
    53  O   -0.344742
    54  O   -0.475255
    55  H    0.462589
    56  O   -0.735373
    57  H    0.418503
    58  C   -0.000258
    59  H   -0.006501
    60  H    0.027659
    61  C   -0.003546
    62  H    0.025779
    63  H    0.016193
    64  C   -0.300039
    65  H    0.068050
    66  H    0.063178
    67  C    0.536546
    68  H   -0.079910
    69  C   -0.470051
    70  H    0.104103
    71  H    0.096640
    72  H    0.104207
    73  C   -0.472802
    74  H    0.102023
    75  H    0.106932
    76  H    0.092012
 Sum of ESP charges =   0.00000

 Normal termination of Gaussian 09 at Thu Apr 27 15:17:17 2017.
