 Gaussian 09, Revision D.01,
 Gaussian 09:  EM64L-G09RevD.01 24-Apr-2013

 ----------------------------------------------------------------------
 #P HF/6-31G* SCF(Conver=6) NoSymm Test Pop=mk IOp(6/33=2) GFInput GFPr
 int
 ----------------------------------------------------------------------

 ----------------------------------------------
 MEP - Input generated by R.E.D.-III.x MOLECULE
 ----------------------------------------------
 Symbolic Z-matrix:
 Charge =  0 Multiplicity = 1

                          Input orientation:
 ---------------------------------------------------------------------
 Center     Atomic      Atomic             Coordinates (Angstroms)
 Number     Number       Type             X           Y           Z
 ---------------------------------------------------------------------
      1          6           0        0.998336   -0.908638   -1.683847
      2          1           0        1.156443    0.055878   -2.181799
      3          6           0        2.208577   -1.813958   -1.951716
      4          1           0        2.352170   -1.933265   -3.029921
      5          1           0        1.971902   -2.813767   -1.552348
      6          6           0        3.481869   -1.298626   -1.307431
      7          6           0        3.416505   -0.933101    0.178771
      8          6           0        2.126263   -0.090838    0.425989
      9          1           0        2.282131    0.910122    0.000000
     10          1           0        1.981344    0.049104    1.502473
     11          6           0        0.842394   -0.677249   -0.181137
     12          1           0        0.588389   -1.631599    0.303542
     13          1           0        0.000000    0.000000    0.000000
     14          6           0        4.605187   -1.194201   -2.029571
     15          1           0        4.594965   -1.458579   -3.084621
     16          6           0        5.943505   -0.771500   -1.499465
     17          1           0        6.262007    0.166567   -1.980142
     18          6           0        6.006438   -0.629110    0.030185
     19          1           0        6.166839   -1.636585    0.436146
     20          6           0        4.661264   -0.063132    0.565540
     21          1           0        4.517445    0.901963    0.052873
     22          6           0        4.749099    0.242723    2.078042
     23          1           0        4.790484   -0.695200    2.642394
     24          1           0        3.834086    0.749999    2.402456
     25          6           0        5.954668    1.114881    2.477946
     26          1           0        5.844302    2.115138    2.034611
     27          1           0        5.936741    1.253165    3.563314
     28          6           0        7.289654    0.508519    2.000235
     29          6           0        7.157066    0.298416    0.463600
     30          1           0        6.900940    1.293436    0.060623
     31          6           0        8.591250    0.000000    0.000000
     32          1           0        8.741039    0.229850   -1.059482
     33          1           0        8.826372   -1.061837    0.124044
     34          6           0        9.468603    0.888649    0.922112
     35          1           0       10.282913    0.303260    1.365711
     36          1           0        9.943007    1.697242    0.357963
     37          6           0        8.535506    1.461562    2.042231
     38          1           0        8.173712    2.448180    1.711172
     39          6           0        7.594387   -0.808810    2.749803
     40          1           0        6.832951   -1.573223    2.575557
     41          1           0        8.555093   -1.237705    2.449778
     42          1           0        7.637589   -0.637271    3.830215
     43          6           0        9.284366    1.688921    3.381697
     44          1           0        9.711436    0.723763    3.694425
     45          6           0        8.370715    2.193480    4.512735
     46          1           0        7.849018    3.111744    4.214738
     47          1           0        8.946036    2.418377    5.415594
     48          1           0        7.614793    1.457061    4.793990
     49          6           0        3.350441   -2.243600    1.007927
     50          1           0        3.147715   -2.038256    2.063717
     51          1           0        2.555885   -2.903495    0.650020
     52          1           0        4.287688   -2.803734    0.938759
     53          8           0        6.938714   -1.775601   -1.822582
     54          8           0        7.125845   -1.768281   -3.270055
     55          1           0        8.043289   -1.453745   -3.323751
     56          8           0       -0.193867   -1.421064   -2.285573
     57          1           0       -0.391879   -2.283583   -1.894381
     58          6           0       10.468973    2.665318    3.172581
     59          1           0       11.033046    2.366178    2.281920
     60          1           0       10.066382    3.666617    2.954427
     61          6           0       11.462460    2.760805    4.342548
     62          1           0       10.956797    3.138187    5.238446
     63          1           0       11.816008    1.750105    4.588127
     64          6           0       12.659982    3.666983    4.012588
     65          1           0       12.281171    4.661730    3.736217
     66          1           0       13.161176    3.274807    3.115798
     67          6           0       13.721783    3.844169    5.123042
     68          1           0       14.489679    4.509566    4.701316
     69          6           0       13.161585    4.539860    6.374840
     70          1           0       12.429738    3.910696    6.894493
     71          1           0       13.963340    4.763704    7.087777
     72          1           0       12.668667    5.485273    6.119245
     73          6           0       14.420787    2.524727    5.490445
     74          1           0       13.732986    1.824890    5.978938
     75          1           0       15.251088    2.703207    6.183233
     76          1           0       14.828245    2.028015    4.601968
 ---------------------------------------------------------------------

 SCF Done:  E(RHF) =  -1273.68320167     A.U. after    9 cycles

 Alpha  occ. eigenvalues --  -20.62423 -20.62302 -20.55602 -11.28585 -11.27703
 Alpha  occ. eigenvalues --  -11.24643 -11.23625 -11.23327 -11.23113 -11.23054
 Alpha  occ. eigenvalues --  -11.22700 -11.22633 -11.22586 -11.22494 -11.22340
 Alpha  occ. eigenvalues --  -11.22303 -11.22237 -11.22069 -11.21865 -11.21847
 Alpha  occ. eigenvalues --  -11.21797 -11.21655 -11.21591 -11.21583 -11.21527
 Alpha  occ. eigenvalues --  -11.21426 -11.21218 -11.21134 -11.21120 -11.21061
 Alpha  occ. eigenvalues --   -1.45716  -1.34965  -1.22346  -1.15858  -1.13928
 Alpha  occ. eigenvalues --   -1.09774  -1.08155  -1.05956  -1.05467  -1.03178
 Alpha  occ. eigenvalues --   -1.01646  -0.99618  -0.98017  -0.96227  -0.93147
 Alpha  occ. eigenvalues --   -0.92491  -0.92145  -0.91101  -0.90798  -0.85846
 Alpha  occ. eigenvalues --   -0.84453  -0.82988  -0.82690  -0.79182  -0.78209
 Alpha  occ. eigenvalues --   -0.77008  -0.74924  -0.74444  -0.72421  -0.70839
 Alpha  occ. eigenvalues --   -0.67854  -0.66602  -0.66057  -0.65149  -0.64605
 Alpha  occ. eigenvalues --   -0.63981  -0.63249  -0.62555  -0.62394  -0.61542
 Alpha  occ. eigenvalues --   -0.60850  -0.60336  -0.59704  -0.59234  -0.58620
 Alpha  occ. eigenvalues --   -0.58104  -0.57783  -0.56727  -0.55975  -0.55776
 Alpha  occ. eigenvalues --   -0.55515  -0.55051  -0.54657  -0.53844  -0.53657
 Alpha  occ. eigenvalues --   -0.53501  -0.53048  -0.52607  -0.52329  -0.51701
 Alpha  occ. eigenvalues --   -0.51089  -0.50909  -0.50668  -0.49506  -0.48697
 Alpha  occ. eigenvalues --   -0.48475  -0.48202  -0.47942  -0.47483  -0.47024
 Alpha  occ. eigenvalues --   -0.46472  -0.46088  -0.45782  -0.45188  -0.45025
 Alpha  occ. eigenvalues --   -0.44908  -0.44694  -0.44207  -0.43839  -0.43708
 Alpha  occ. eigenvalues --   -0.42709  -0.42314  -0.41766  -0.40697  -0.38907
 Alpha  occ. eigenvalues --   -0.33820
 Alpha virt. eigenvalues --    0.17024   0.20503   0.21053   0.21599   0.21872
 Alpha virt. eigenvalues --    0.22677   0.22907   0.24179   0.24819   0.25106
 Alpha virt. eigenvalues --    0.25397   0.25999   0.26112   0.26512   0.27027

 Mulliken charges:
               1
     1  C    0.193727
     2  H    0.172291
     3  C   -0.366700
     4  H    0.195105
     5  H    0.154568
     6  C    0.069065
     7  C   -0.040951
     8  C   -0.326195
     9  H    0.164426
    10  H    0.171763
    11  C   -0.339486
    12  H    0.144629
    13  H    0.182336
    14  C   -0.249956
    15  H    0.212660
    16  C    0.189856
    17  H    0.166339
    18  C   -0.189439
    19  H    0.191586
    20  C   -0.164845
    21  H    0.158654
    22  C   -0.328744
    23  H    0.165624
    24  H    0.168772
    25  C   -0.298208
    26  H    0.152446
    27  H    0.166040
    28  C   -0.031505
    29  C   -0.163835
    30  H    0.151226
    31  C   -0.301824
    32  H    0.150958
    33  H    0.174936
    34  C   -0.339341
    35  H    0.161217
    36  H    0.166621
    37  C   -0.134876
    38  H    0.152475
    39  C   -0.488424
    40  H    0.164195
    41  H    0.167528
    42  H    0.163713
    43  C   -0.149409
    44  H    0.153324
    45  C   -0.485448
    46  H    0.153125
    47  H    0.164487
    48  H    0.161786
    49  C   -0.478172
    50  H    0.163841
    51  H    0.163464
    52  H    0.174164
    53  O   -0.394757
    54  O   -0.469530
    55  H    0.460481
    56  O   -0.759766
    57  H    0.428134
    58  C   -0.307664
    59  H    0.165468
    60  H    0.147731
    61  C   -0.314809
    62  H    0.159572
    63  H    0.154445
    64  C   -0.300871
    65  H    0.151676
    66  H    0.151131
    67  C   -0.146472
    68  H    0.155689
    69  C   -0.476391
    70  H    0.155376
    71  H    0.158861
    72  H    0.156927
    73  C   -0.476257
    74  H    0.156107
    75  H    0.158611
    76  H    0.156720
 Sum of Mulliken charges =   0.00000

 Dipole moment (field-independent basis, Debye):
    X=              1.3314    Y=              1.0458    Z=              2.1538  Tot=              2.7396
 Quadrupole moment (field-independent basis, Debye-Ang):
   XX=           -179.6425   YY=           -191.9460   ZZ=           -196.9698
   XY=             12.5693   XZ=             -1.0544   YZ=             -5.4844

 ESP charges:
               1
     1  C    0.508228
     2  H    0.046883
     3  C   -0.464697
     4  H    0.144754
     5  H    0.146665
     6  C   -0.000556
     7  C    0.366476
     8  C   -0.115815
     9  H    0.040488
    10  H    0.075621
    11  C   -0.336338
    12  H    0.086296
    13  H    0.097724
    14  C   -0.363745
    15  H    0.199157
    16  C    0.353795
    17  H   -0.012066
    18  C    0.231730
    19  H   -0.004690
    20  C   -0.377991
    21  H    0.043879
    22  C    0.211232
    23  H   -0.028730
    24  H   -0.030842
    25  C   -0.262105
    26  H    0.026684
    27  H    0.030659
    28  C    0.567710
    29  C   -0.052194
    30  H    0.004846
    31  C   -0.310071
    32  H    0.095170
    33  H    0.060171
    34  C   -0.010037
    35  H    0.026751
    36  H    0.018331
    37  C   -0.016997
    38  H   -0.027255
    39  C   -0.611784
    40  H    0.131897
    41  H    0.137389
    42  H    0.123031
    43  C    0.162758
    44  H   -0.007026
    45  C   -0.458458
    46  H    0.103836
    47  H    0.100598
    48  H    0.112454
    49  C   -0.308217
    50  H    0.057217
    51  H    0.075630
    52  H    0.083098
    53  O   -0.303169
    54  O   -0.447345
    55  H    0.428036
    56  O   -0.730624
    57  H    0.416165
    58  C   -0.179911
    59  H    0.018054
    60  H    0.051341
    61  C    0.221213
    62  H   -0.009599
    63  H   -0.033590
    64  C   -0.298171
    65  H    0.043253
    66  H    0.054003
    67  C    0.443119
    68  H   -0.055011
    69  C   -0.416281
    70  H    0.086917
    71  H    0.092579
    72  H    0.090046
    73  C   -0.401429
    74  H    0.085758
    75  H    0.087455
    76  H    0.085644
 Sum of ESP charges =   0.00000

 Normal termination of Gaussian 09 at Thu Apr 27 15:11:04 2017.
