 Gaussian 09, Revision D.01,
 Gaussian 09:  EM64L-G09RevD.01 24-Apr-2013

 ----------------------------------------------------------------------
 #P HF/6-31G* SCF(Conver=6) NoSymm Test Pop=mk IOp(6/33=2) GFInput GFPr
 int
 ----------------------------------------------------------------------

 ----------------------------------------------
 MEP - Input generated by R.E.D.-III.x MOLECULE
 ----------------------------------------------
 Symbolic Z-matrix:
 Charge =  0 Multiplicity = 1

                          Input orientation:
 ---------------------------------------------------------------------
 Center     Atomic      Atomic             Coordinates (Angstroms)
 Number     Number       Type             X           Y           Z
 ---------------------------------------------------------------------
      1          6           0        0.998352   -0.907890   -1.684256
      2          1           0        1.156487    0.056756   -2.181939
      3          6           0        2.208470   -1.813292   -1.952385
      4          1           0        2.351986   -1.932591   -3.030600
      5          1           0        1.971753   -2.813069   -1.552934
      6          6           0        3.481813   -1.297830   -1.308223
      7          6           0        3.416599   -0.932589    0.178159
      8          6           0        2.126344   -0.090422    0.425693
      9          1           0        2.282039    0.910685    0.000000
     10          1           0        1.981301    0.048998    1.502180
     11          6           0        0.842559   -0.676955   -0.181449
     12          1           0        0.588949   -1.631528    0.302990
     13          1           0        0.000000    0.000000    0.000000
     14          6           0        4.605028   -1.193121   -2.030453
     15          1           0        4.594795   -1.457285   -3.085555
     16          6           0        5.943168   -0.769738   -1.500301
     17          1           0        6.260258    0.169615   -1.979429
     18          6           0        6.006697   -0.629581    0.029547
     19          1           0        6.166533   -1.637605    0.434286
     20          6           0        4.661479   -0.062890    0.565169
     21          1           0        4.518305    0.901889    0.051669
     22          6           0        4.747404    0.244806    2.077798
     23          1           0        4.784873   -0.692255    2.643728
     24          1           0        3.833021    0.754986    2.399336
     25          6           0        5.954738    1.114243    2.479084
     26          1           0        5.846409    2.115222    2.036905
     27          1           0        5.938751    1.250903    3.565034
     28          6           0        7.287322    0.504705    2.001140
     29          6           0        7.157488    0.296807    0.464309
     30          1           0        6.900768    1.292291    0.063158
     31          6           0        8.593151    0.000000    0.000000
     32          1           0        8.745829    0.248592   -1.054896
     33          1           0        8.822996   -1.065032    0.104762
     34          6           0        9.474782    0.865331    0.941696
     35          1           0       10.261726    0.255268    1.400510
     36          1           0        9.986130    1.664381    0.395274
     37          6           0        8.533866    1.455202    2.041971
     38          1           0        8.171819    2.433048    1.691275
     39          6           0        7.586751   -0.812115    2.753046
     40          1           0        6.821911   -1.573622    2.581209
     41          1           0        8.545325   -1.246627    2.454170
     42          1           0        7.629983   -0.637278    3.833251
     43          6           0        9.269022    1.691373    3.384875
     44          1           0        9.640707    0.715487    3.729933
     45          6           0        8.366697    2.255371    4.498639
     46          1           0        7.817840    3.145176    4.170636
     47          1           0        8.967820    2.539418    5.370504
     48          1           0        7.630217    1.522947    4.838664
     49          6           0        3.350265   -2.243406    1.006818
     50          1           0        3.147350   -2.038537    2.062654
     51          1           0        2.555608   -2.902819    0.648333
     52          1           0        4.287295   -2.803900    0.937570
     53          8           0        6.939452   -1.771928   -1.825651
     54          8           0        7.125937   -1.761711   -3.273200
     55          1           0        8.042977   -1.445935   -3.326636
     56          8           0       -0.193931   -1.420070   -2.286028
     57          1           0       -0.392225   -2.282478   -1.894729
     58          6           0       10.532140    2.577467    3.212732
     59          1           0       11.043405    2.616336    4.185259
     60          1           0       11.233443    2.083425    2.528786
     61          6           0       10.302966    4.018291    2.727337
     62          1           0        9.837329    4.010011    1.732122
     63          1           0        9.594966    4.523527    3.394673
     64          6           0       11.609863    4.822927    2.654087
     65          1           0       12.331785    4.261961    2.043160
     66          1           0       12.052552    4.890108    3.659805
     67          6           0       11.481874    6.245178    2.071386
     68          1           0       11.006782    6.156918    1.081883
     69          6           0       10.600659    7.160814    2.936637
     70          1           0       11.018103    7.259185    3.947298
     71          1           0       10.538557    8.166211    2.504798
     72          1           0        9.578870    6.780372    3.032861
     73          6           0       12.870656    6.871655    1.868645
     74          1           0       13.393135    6.981913    2.827597
     75          1           0       12.796413    7.866820    1.415538
     76          1           0       13.497936    6.252097    1.217503
 ---------------------------------------------------------------------

 SCF Done:  E(RHF) =  -1273.68441670     A.U. after    9 cycles

 Alpha  occ. eigenvalues --  -20.62437 -20.62316 -20.55611 -11.28600 -11.27713
 Alpha  occ. eigenvalues --  -11.24660 -11.23637 -11.23354 -11.23098 -11.23074
 Alpha  occ. eigenvalues --  -11.22712 -11.22629 -11.22596 -11.22505 -11.22313
 Alpha  occ. eigenvalues --  -11.22254 -11.22244 -11.22092 -11.21878 -11.21860
 Alpha  occ. eigenvalues --  -11.21821 -11.21667 -11.21626 -11.21607 -11.21583
 Alpha  occ. eigenvalues --  -11.21467 -11.21238 -11.21164 -11.21159 -11.21155
 Alpha  occ. eigenvalues --   -1.45731  -1.34974  -1.22361  -1.15884  -1.13957
 Alpha  occ. eigenvalues --   -1.09825  -1.08195  -1.05973  -1.05482  -1.03194
 Alpha  occ. eigenvalues --   -1.01637  -0.99748  -0.98006  -0.96265  -0.93160
 Alpha  occ. eigenvalues --   -0.92509  -0.92142  -0.91095  -0.90835  -0.85858
 Alpha  occ. eigenvalues --   -0.84179  -0.83001  -0.82754  -0.79202  -0.78233
 Alpha  occ. eigenvalues --   -0.76937  -0.76099  -0.74010  -0.72153  -0.70789
 Alpha  occ. eigenvalues --   -0.67864  -0.66616  -0.66127  -0.65174  -0.64845
 Alpha  occ. eigenvalues --   -0.64059  -0.63634  -0.62536  -0.61910  -0.61380
 Alpha  occ. eigenvalues --   -0.60914  -0.60191  -0.59630  -0.59271  -0.58820
 Alpha  occ. eigenvalues --   -0.57918  -0.57762  -0.56641  -0.55998  -0.55755
 Alpha  occ. eigenvalues --   -0.55287  -0.54813  -0.54668  -0.53900  -0.53742
 Alpha  occ. eigenvalues --   -0.53454  -0.53109  -0.52839  -0.52480  -0.52254
 Alpha  occ. eigenvalues --   -0.51678  -0.50795  -0.50133  -0.49506  -0.48843
 Alpha  occ. eigenvalues --   -0.48446  -0.48355  -0.47760  -0.47554  -0.47289
 Alpha  occ. eigenvalues --   -0.46748  -0.46177  -0.45465  -0.45355  -0.45102
 Alpha  occ. eigenvalues --   -0.44991  -0.44834  -0.44056  -0.43788  -0.43308
 Alpha  occ. eigenvalues --   -0.42722  -0.42302  -0.41834  -0.40709  -0.39050
 Alpha  occ. eigenvalues --   -0.33832
 Alpha virt. eigenvalues --    0.17012   0.20350   0.20931   0.21602   0.22239
 Alpha virt. eigenvalues --    0.22521   0.22936   0.23854   0.24535   0.24795
 Alpha virt. eigenvalues --    0.25343   0.25718   0.26139   0.26934   0.27086

 Mulliken charges:
               1
     1  C    0.193737
     2  H    0.172294
     3  C   -0.366690
     4  H    0.195130
     5  H    0.154586
     6  C    0.068998
     7  C   -0.040908
     8  C   -0.326205
     9  H    0.164422
    10  H    0.171808
    11  C   -0.339550
    12  H    0.144656
    13  H    0.182370
    14  C   -0.250073
    15  H    0.212721
    16  C    0.190039
    17  H    0.166228
    18  C   -0.189338
    19  H    0.191587
    20  C   -0.164926
    21  H    0.158577
    22  C   -0.328854
    23  H    0.165746
    24  H    0.168836
    25  C   -0.298134
    26  H    0.152185
    27  H    0.165894
    28  C   -0.029973
    29  C   -0.163590
    30  H    0.150896
    31  C   -0.302458
    32  H    0.150808
    33  H    0.175653
    34  C   -0.338417
    35  H    0.162161
    36  H    0.165236
    37  C   -0.140534
    38  H    0.157084
    39  C   -0.489283
    40  H    0.164555
    41  H    0.167657
    42  H    0.163272
    43  C   -0.148222
    44  H    0.158019
    45  C   -0.486864
    46  H    0.157053
    47  H    0.158697
    48  H    0.161871
    49  C   -0.478164
    50  H    0.163830
    51  H    0.163499
    52  H    0.174180
    53  O   -0.394820
    54  O   -0.469433
    55  H    0.460466
    56  O   -0.759754
    57  H    0.428142
    58  C   -0.310288
    59  H    0.153990
    60  H    0.161031
    61  C   -0.316345
    62  H    0.152683
    63  H    0.161260
    64  C   -0.294838
    65  H    0.151735
    66  H    0.148164
    67  C   -0.147196
    68  H    0.150289
    69  C   -0.476261
    70  H    0.152160
    71  H    0.158600
    72  H    0.161624
    73  C   -0.472547
    74  H    0.153089
    75  H    0.158398
    76  H    0.157746
 Sum of Mulliken charges =   0.00000

 Dipole moment (field-independent basis, Debye):
    X=              1.2150    Y=              0.9518    Z=              2.1492  Tot=              2.6460
 Quadrupole moment (field-independent basis, Debye-Ang):
   XX=           -182.6406   YY=           -193.0720   ZZ=           -196.1343
   XY=             10.8464   XZ=             -1.1082   YZ=             -5.9340

 ESP charges:
               1
     1  C    0.505607
     2  H    0.046992
     3  C   -0.459466
     4  H    0.142786
     5  H    0.145738
     6  C    0.012013
     7  C    0.333194
     8  C   -0.116534
     9  H    0.040474
    10  H    0.076248
    11  C   -0.331167
    12  H    0.085750
    13  H    0.096515
    14  C   -0.380598
    15  H    0.203491
    16  C    0.358051
    17  H   -0.008833
    18  C    0.231062
    19  H   -0.000123
    20  C   -0.308084
    21  H    0.030864
    22  C    0.177946
    23  H   -0.024354
    24  H   -0.023474
    25  C   -0.284101
    26  H    0.033458
    27  H    0.043163
    28  C    0.531125
    29  C   -0.114420
    30  H    0.023819
    31  C   -0.376609
    32  H    0.107258
    33  H    0.083177
    34  C    0.036659
    35  H   -0.002284
    36  H    0.008561
    37  C    0.198804
    38  H   -0.111101
    39  C   -0.591927
    40  H    0.131899
    41  H    0.124154
    42  H    0.114797
    43  C    0.193722
    44  H   -0.032297
    45  C   -0.412597
    46  H    0.071773
    47  H    0.101726
    48  H    0.088961
    49  C   -0.306443
    50  H    0.059039
    51  H    0.076605
    52  H    0.081110
    53  O   -0.299354
    54  O   -0.449500
    55  H    0.429518
    56  O   -0.730158
    57  H    0.415667
    58  C   -0.226052
    59  H    0.058663
    60  H    0.017405
    61  C    0.146062
    62  H   -0.013776
    63  H    0.023985
    64  C   -0.339676
    65  H    0.080347
    66  H    0.076478
    67  C    0.449019
    68  H   -0.043851
    69  C   -0.446927
    70  H    0.108990
    71  H    0.102218
    72  H    0.081253
    73  C   -0.454156
    74  H    0.104941
    75  H    0.104147
    76  H    0.092632
 Sum of ESP charges =   0.00000

 Normal termination of Gaussian 09 at Thu Apr 27 16:16:07 2017.
