 Gaussian 09, Revision D.01,
 Gaussian 09:  EM64L-G09RevD.01 24-Apr-2013

 ----------------------------------------------------------------------
 #P HF/6-31G* SCF(Conver=6) NoSymm Test Pop=mk IOp(6/33=2) GFInput GFPr
 int
 ----------------------------------------------------------------------

 ----------------------------------------------
 MEP - Input generated by R.E.D.-III.x MOLECULE
 ----------------------------------------------
 Symbolic Z-matrix:
 Charge =  0 Multiplicity = 1

                          Input orientation:
 ---------------------------------------------------------------------
 Center     Atomic      Atomic             Coordinates (Angstroms)
 Number     Number       Type             X           Y           Z
 ---------------------------------------------------------------------
      1          6           0        1.758858   -1.247771   -0.073423
      2          1           0        1.871470   -1.124481   -1.157516
      3          6           0        3.151293   -1.309697    0.570296
      4          1           0        3.728007   -2.128440    0.128506
      5          1           0        3.013680   -1.558160    1.635268
      6          6           0        3.914652   -0.004393    0.451747
      7          6           0        3.191070    1.277617    0.878585
      8          6           0        1.748244    1.253959    0.284155
      9          1           0        1.817311    1.447159   -0.795429
     10          1           0        1.166641    2.078286    0.709575
     11          6           0        0.979116   -0.060155    0.488636
     12          1           0        0.787197   -0.231726    1.558307
     13          1           0        0.000000    0.000000    0.000000
     14          6           0        5.176047    0.000000    0.000000
     15          1           0        5.636802   -0.936279   -0.316835
     16          6           0        6.060662    1.207222   -0.106084
     17          1           0        6.294827    1.396285   -1.166413
     18          6           0        5.482147    2.479054    0.532545
     19          1           0        5.691587    2.415585    1.605875
     20          6           0        3.945544    2.528100    0.305685
     21          1           0        3.798932    2.484322   -0.786417
     22          6           0        3.349007    3.873156    0.778761
     23          1           0        3.366220    3.921037    1.873004
     24          1           0        2.293659    3.929358    0.490253
     25          6           0        4.071234    5.113655    0.218047
     26          1           0        3.931524    5.155197   -0.871964
     27          1           0        3.590664    6.007957    0.626578
     28          6           0        5.582681    5.086563    0.520959
     29          6           0        6.129271    3.746806   -0.052836
     30          1           0        5.849766    3.758422   -1.121329
     31          6           0        7.656328    3.912222    0.000000
     32          1           0        8.173902    3.257125   -0.705369
     33          1           0        8.038863    3.653693    0.992638
     34          6           0        7.871396    5.416122   -0.318794
     35          1           0        8.547886    5.876802    0.411175
     36          1           0        8.340942    5.547304   -1.298470
     37          6           0        6.466798    6.109061   -0.275585
     38          1           0        6.063686    6.125109   -1.301025
     39          6           0        5.840256    5.222966    2.039434
     40          1           0        5.407398    4.398379    2.611376
     41          1           0        6.908774    5.247996    2.271864
     42          1           0        5.400687    6.148944    2.424361
     43          6           0        6.543531    7.585109    0.194879
     44          1           0        7.009820    7.594312    1.191892
     45          6           0        5.164432    8.260101    0.306413
     46          1           0        4.607454    8.167575   -0.634392
     47          1           0        5.261563    9.327208    0.528238
     48          1           0        4.552704    7.825719    1.100426
     49          6           0        3.117639    1.307187    2.428566
     50          1           0        2.486805    2.129072    2.780981
     51          1           0        2.692385    0.381819    2.826785
     52          1           0        4.112485    1.421145    2.868715
     53          8           0        7.393886    0.897555    0.373765
     54          8           0        7.337451    0.637842    1.807544
     55          1           0        7.382689   -0.332243    1.821952
     56          8           0        1.054724   -2.484518    0.066401
     57          1           0        0.891249   -2.643722    1.006681
     58          6           0        7.462068    8.405274   -0.747635
     59          1           0        8.346663    7.811503   -0.996423
     60          1           0        6.931173    8.572539   -1.697932
     61          6           0        7.928946    9.756412   -0.181345
     62          1           0        7.061530   10.353596    0.124768
     63          1           0        8.507009    9.579668    0.735912
     64          6           0        8.752040   10.608496   -1.165749
     65          1           0        8.953972   11.584422   -0.699589
     66          1           0        8.130055   10.818383   -2.048039
     67          6           0       10.095955   10.020654   -1.646879
     68          1           0        9.896958    9.054040   -2.131256
     69          6           0       10.728188   10.941426   -2.703012
     70          1           0       10.956374   11.926832   -2.276578
     71          1           0       11.664479   10.521702   -3.088278
     72          1           0       10.054370   11.095406   -3.553749
     73          6           0       11.076951    9.775463   -0.489515
     74          1           0       11.291728   10.711080    0.043257
     75          1           0       12.028911    9.379088   -0.860681
     76          1           0       10.685077    9.059416    0.240065
 ---------------------------------------------------------------------

 SCF Done:  E(RHF) =  -1273.68321868     A.U. after    9 cycles

 Alpha  occ. eigenvalues --  -20.62447 -20.62312 -20.56054 -11.28775 -11.28189
 Alpha  occ. eigenvalues --  -11.24921 -11.24426 -11.23226 -11.23158 -11.22954
 Alpha  occ. eigenvalues --  -11.22674 -11.22663 -11.22657 -11.22335 -11.22257
 Alpha  occ. eigenvalues --  -11.22224 -11.22043 -11.21928 -11.21875 -11.21653
 Alpha  occ. eigenvalues --  -11.21513 -11.21418 -11.21358 -11.21151 -11.20939
 Alpha  occ. eigenvalues --  -11.20900 -11.20872 -11.20771 -11.20771 -11.20398
 Alpha  occ. eigenvalues --   -1.45704  -1.35431  -1.22134  -1.15867  -1.13883
 Alpha  occ. eigenvalues --   -1.09586  -1.08052  -1.05901  -1.05677  -1.03067
 Alpha  occ. eigenvalues --   -1.01669  -0.99431  -0.97889  -0.96305  -0.92808
 Alpha  occ. eigenvalues --   -0.92257  -0.92149  -0.90898  -0.90472  -0.86043
 Alpha  occ. eigenvalues --   -0.83992  -0.82928  -0.82416  -0.79151  -0.78483
 Alpha  occ. eigenvalues --   -0.76955  -0.74901  -0.74274  -0.72082  -0.69374
 Alpha  occ. eigenvalues --   -0.69355  -0.67138  -0.65630  -0.65264  -0.64388
 Alpha  occ. eigenvalues --   -0.63943  -0.63213  -0.62898  -0.62771  -0.61384
 Alpha  occ. eigenvalues --   -0.60742  -0.60127  -0.59429  -0.58773  -0.57919
 Alpha  occ. eigenvalues --   -0.57818  -0.57300  -0.56361  -0.56040  -0.55847
 Alpha  occ. eigenvalues --   -0.55403  -0.54687  -0.54208  -0.54077  -0.53752
 Alpha  occ. eigenvalues --   -0.53058  -0.52999  -0.52899  -0.52454  -0.52108
 Alpha  occ. eigenvalues --   -0.51435  -0.50750  -0.50054  -0.49401  -0.48700
 Alpha  occ. eigenvalues --   -0.48348  -0.47946  -0.47468  -0.47201  -0.46800
 Alpha  occ. eigenvalues --   -0.46619  -0.46231  -0.46014  -0.45372  -0.45033
 Alpha  occ. eigenvalues --   -0.44657  -0.44283  -0.43756  -0.43299  -0.43215
 Alpha  occ. eigenvalues --   -0.42657  -0.42339  -0.41555  -0.40445  -0.38613
 Alpha  occ. eigenvalues --   -0.34433
 Alpha virt. eigenvalues --    0.16128   0.20771   0.21267   0.21578   0.22099
 Alpha virt. eigenvalues --    0.22930   0.23143   0.24386   0.24856   0.25367
 Alpha virt. eigenvalues --    0.25741   0.26129   0.26470   0.26778   0.27254

 Mulliken charges:
               1
     1  C    0.193934
     2  H    0.173809
     3  C   -0.368280
     4  H    0.191958
     5  H    0.155435
     6  C    0.083502
     7  C   -0.042205
     8  C   -0.327365
     9  H    0.165848
    10  H    0.174459
    11  C   -0.341366
    12  H    0.144956
    13  H    0.184008
    14  C   -0.279591
    15  H    0.185834
    16  C    0.190344
    17  H    0.186680
    18  C   -0.182580
    19  H    0.208853
    20  C   -0.168177
    21  H    0.156530
    22  C   -0.327908
    23  H    0.165035
    24  H    0.166907
    25  C   -0.297650
    26  H    0.151422
    27  H    0.165298
    28  C   -0.030700
    29  C   -0.168840
    30  H    0.147068
    31  C   -0.305938
    32  H    0.173568
    33  H    0.177634
    34  C   -0.339917
    35  H    0.159500
    36  H    0.164790
    37  C   -0.135300
    38  H    0.150838
    39  C   -0.488259
    40  H    0.163260
    41  H    0.169916
    42  H    0.161276
    43  C   -0.147114
    44  H    0.153556
    45  C   -0.485302
    46  H    0.152887
    47  H    0.162788
    48  H    0.161158
    49  C   -0.480728
    50  H    0.165843
    51  H    0.159927
    52  H    0.180423
    53  O   -0.393196
    54  O   -0.470570
    55  H    0.458932
    56  O   -0.759100
    57  H    0.428508
    58  C   -0.315146
    59  H    0.173040
    60  H    0.146553
    61  C   -0.312964
    62  H    0.157736
    63  H    0.154190
    64  C   -0.296927
    65  H    0.150472
    66  H    0.151462
    67  C   -0.153074
    68  H    0.156578
    69  C   -0.471555
    70  H    0.151986
    71  H    0.158098
    72  H    0.157328
    73  C   -0.476359
    74  H    0.151712
    75  H    0.158538
    76  H    0.161735
 Sum of Mulliken charges =   0.00000

 Dipole moment (field-independent basis, Debye):
    X=             -1.4618    Y=              0.0016    Z=              1.0416  Tot=              1.7949
 Quadrupole moment (field-independent basis, Debye-Ang):
   XX=           -214.1296   YY=           -195.5651   ZZ=           -188.4431
   XY=            -11.3598   XZ=             -2.4307   YZ=             -6.1352

 ESP charges:
               1
     1  C    0.536324
     2  H    0.040586
     3  C   -0.460301
     4  H    0.135553
     5  H    0.132127
     6  C    0.175790
     7  C    0.224658
     8  C   -0.057809
     9  H    0.021023
    10  H    0.068325
    11  C   -0.349454
    12  H    0.088691
    13  H    0.093972
    14  C   -0.583190
    15  H    0.212590
    16  C    0.493244
    17  H    0.046536
    18  C   -0.231504
    19  H    0.148162
    20  C   -0.183886
    21  H    0.055663
    22  C    0.044872
    23  H    0.011524
    24  H    0.008163
    25  C   -0.255783
    26  H    0.025176
    27  H    0.042311
    28  C    0.617305
    29  C    0.119362
    30  H   -0.032892
    31  C   -0.240244
    32  H    0.077026
    33  H    0.094332
    34  C   -0.199990
    35  H    0.060888
    36  H    0.077076
    37  C   -0.055518
    38  H   -0.022857
    39  C   -0.549698
    40  H    0.109191
    41  H    0.111270
    42  H    0.107152
    43  C    0.208766
    44  H   -0.013304
    45  C   -0.497683
    46  H    0.108080
    47  H    0.118883
    48  H    0.110098
    49  C   -0.331523
    50  H    0.076195
    51  H    0.082458
    52  H    0.089774
    53  O   -0.342328
    54  O   -0.476312
    55  H    0.465496
    56  O   -0.738594
    57  H    0.418393
    58  C   -0.070817
    59  H    0.000476
    60  H    0.029522
    61  C    0.010984
    62  H    0.025835
    63  H    0.002498
    64  C   -0.267988
    65  H    0.057830
    66  H    0.058454
    67  C    0.494832
    68  H   -0.058633
    69  C   -0.486652
    70  H    0.107521
    71  H    0.111202
    72  H    0.095980
    73  C   -0.420338
    74  H    0.095229
    75  H    0.084746
    76  H    0.095152
 Sum of ESP charges =   0.00000

 Normal termination of Gaussian 09 at Thu Apr 27 16:38:20 2017.
