 Gaussian 09, Revision D.01,
 Gaussian 09:  EM64L-G09RevD.01 24-Apr-2013

 ----------------------------------------------------------------------
 #P HF/6-31G* SCF(Conver=6) NoSymm Test Pop=mk IOp(6/33=2) GFInput GFPr
 int
 ----------------------------------------------------------------------

 ----------------------------------------------
 MEP - Input generated by R.E.D.-III.x MOLECULE
 ----------------------------------------------
 Symbolic Z-matrix:
 Charge =  0 Multiplicity = 1

                          Input orientation:
 ---------------------------------------------------------------------
 Center     Atomic      Atomic             Coordinates (Angstroms)
 Number     Number       Type             X           Y           Z
 ---------------------------------------------------------------------
      1          6           0        7.509892    2.215815    0.070787
      2          1           0        7.343269    2.187017    1.154601
      3          6           0        6.818847    1.006182   -0.573641
      4          1           0        7.198661    0.080965   -0.129688
      5          1           0        7.105437    0.986380   -1.637879
      6          6           0        5.307200    1.061638   -0.456218
      7          6           0        4.617666    2.357322   -0.894871
      8          6           0        5.402907    3.564794   -0.294320
      9          1           0        5.197263    3.606451    0.784409
     10          1           0        5.019670    4.498416   -0.719622
     11          6           0        6.925706    3.511257   -0.491843
     12          1           0        7.178091    3.583421   -1.560165
     13          1           0        7.396889    4.369849    0.000000
     14          6           0        4.629685    0.000000    0.000000
     15          1           0        5.169196   -0.893140    0.307179
     16          6           0        3.135997   -0.102793    0.095485
     17          1           0        2.830526   -0.211902    1.147743
     18          6           0        2.374512    1.062452   -0.557516
     19          1           0        2.318319    0.842223   -1.631704
     20          6           0        3.151999    2.391043   -0.341204
     21          1           0        3.251632    2.505148    0.750570
     22          6           0        2.334428    3.602270   -0.844620
     23          1           0        2.293327    3.590485   -1.939187
     24          1           0        2.849170    4.529903   -0.571928
     25          6           0        0.896180    3.666625   -0.295733
     26          1           0        0.927542    3.830515    0.791188
     27          1           0        0.400138    4.541525   -0.726965
     28          6           0        0.112611    2.368360   -0.576083
     29          6           0        0.954595    1.203795    0.022098
     30          1           0        1.095112    1.469485    1.084039
     31          6           0        0.000000    0.000000    0.000000
     32          1           0        0.276204   -0.762026    0.735390
     33          1           0        0.017081   -0.491168   -0.978074
     34          6           0       -1.388843    0.626006    0.298276
     35          1           0       -2.133414    0.285397   -0.431216
     36          1           0       -1.758555    0.319126    1.281273
     37          6           0       -1.224285    2.181954    0.224017
     38          1           0       -1.022150    2.551091    1.242246
     39          6           0       -0.138558    2.194408   -2.091579
     40          1           0        0.790585    2.118648   -2.662041
     41          1           0       -0.723546    1.295853   -2.309087
     42          1           0       -0.693638    3.049055   -2.491636
     43          6           0       -2.514881    2.894283   -0.259303
     44          1           0       -2.770717    2.487713   -1.249740
     45          6           0       -2.354222    4.418598   -0.398010
     46          1           0       -2.011277    4.863757    0.544540
     47          1           0       -3.303372    4.894134   -0.662038
     48          1           0       -1.636732    4.690261   -1.175341
     49          6           0        4.649089    2.434008   -2.444840
     50          1           0        4.307821    3.410232   -2.803275
     51          1           0        5.660302    2.284443   -2.832082
     52          1           0        4.016948    1.661390   -2.892525
     53          8           0        2.679792   -1.287181   -0.606060
     54          8           0        3.151333   -2.453272    0.134300
     55          1           0        2.303837   -2.822429    0.432619
     56          8           0        8.932318    2.151964   -0.065710
     57          1           0        9.153794    2.166442   -1.007473
     58          6           0       -3.694989    2.562884    0.688271
     59          1           0       -3.713030    1.484444    0.882126
     60          1           0       -3.511011    3.042966    1.661897
     61          6           0       -5.087884    2.967428    0.177247
     62          1           0       -5.142611    4.054208    0.048176
     63          1           0       -5.239230    2.528541   -0.818388
     64          6           0       -6.208021    2.509122    1.125582
     65          1           0       -6.017303    2.931033    2.123089
     66          1           0       -6.145244    1.417493    1.242347
     67          6           0       -7.654716    2.870436    0.715161
     68          1           0       -8.302618    2.457426    1.502508
     69          6           0       -7.900612    4.388034    0.679968
     70          1           0       -7.336022    4.871200   -0.125808
     71          1           0       -8.961184    4.607008    0.511343
     72          1           0       -7.608041    4.861859    1.624423
     73          6           0       -8.077264    2.211454   -0.608362
     74          1           0       -7.518711    2.618239   -1.459252
     75          1           0       -9.141881    2.381147   -0.805862
     76          1           0       -7.910457    1.128030   -0.585918
 ---------------------------------------------------------------------

 SCF Done:  E(RHF) =  -1273.68320164     A.U. after    9 cycles

 Alpha  occ. eigenvalues --  -20.62423 -20.62302 -20.55602 -11.28585 -11.27703
 Alpha  occ. eigenvalues --  -11.24643 -11.23625 -11.23327 -11.23113 -11.23054
 Alpha  occ. eigenvalues --  -11.22700 -11.22633 -11.22586 -11.22494 -11.22340
 Alpha  occ. eigenvalues --  -11.22303 -11.22237 -11.22069 -11.21865 -11.21847
 Alpha  occ. eigenvalues --  -11.21797 -11.21655 -11.21591 -11.21583 -11.21527
 Alpha  occ. eigenvalues --  -11.21426 -11.21218 -11.21133 -11.21120 -11.21061
 Alpha  occ. eigenvalues --   -1.45716  -1.34965  -1.22346  -1.15858  -1.13928
 Alpha  occ. eigenvalues --   -1.09774  -1.08155  -1.05956  -1.05467  -1.03178
 Alpha  occ. eigenvalues --   -1.01646  -0.99618  -0.98017  -0.96227  -0.93147
 Alpha  occ. eigenvalues --   -0.92491  -0.92145  -0.91101  -0.90798  -0.85846
 Alpha  occ. eigenvalues --   -0.84453  -0.82988  -0.82690  -0.79182  -0.78209
 Alpha  occ. eigenvalues --   -0.77008  -0.74924  -0.74444  -0.72421  -0.70839
 Alpha  occ. eigenvalues --   -0.67854  -0.66602  -0.66057  -0.65149  -0.64605
 Alpha  occ. eigenvalues --   -0.63981  -0.63249  -0.62555  -0.62394  -0.61542
 Alpha  occ. eigenvalues --   -0.60850  -0.60336  -0.59704  -0.59234  -0.58620
 Alpha  occ. eigenvalues --   -0.58104  -0.57783  -0.56727  -0.55975  -0.55776
 Alpha  occ. eigenvalues --   -0.55515  -0.55051  -0.54657  -0.53844  -0.53657
 Alpha  occ. eigenvalues --   -0.53501  -0.53048  -0.52607  -0.52329  -0.51701
 Alpha  occ. eigenvalues --   -0.51089  -0.50909  -0.50668  -0.49506  -0.48697
 Alpha  occ. eigenvalues --   -0.48475  -0.48202  -0.47942  -0.47483  -0.47024
 Alpha  occ. eigenvalues --   -0.46472  -0.46088  -0.45782  -0.45188  -0.45025
 Alpha  occ. eigenvalues --   -0.44908  -0.44694  -0.44207  -0.43839  -0.43708
 Alpha  occ. eigenvalues --   -0.42709  -0.42314  -0.41766  -0.40697  -0.38907
 Alpha  occ. eigenvalues --   -0.33820
 Alpha virt. eigenvalues --    0.17024   0.20503   0.21053   0.21599   0.21872
 Alpha virt. eigenvalues --    0.22677   0.22907   0.24179   0.24819   0.25106
 Alpha virt. eigenvalues --    0.25397   0.25999   0.26112   0.26512   0.27027

 Mulliken charges:
               1
     1  C    0.193726
     2  H    0.172292
     3  C   -0.366698
     4  H    0.195105
     5  H    0.154568
     6  C    0.069064
     7  C   -0.040952
     8  C   -0.326194
     9  H    0.164427
    10  H    0.171763
    11  C   -0.339488
    12  H    0.144628
    13  H    0.182337
    14  C   -0.249956
    15  H    0.212660
    16  C    0.189856
    17  H    0.166339
    18  C   -0.189439
    19  H    0.191586
    20  C   -0.164845
    21  H    0.158654
    22  C   -0.328744
    23  H    0.165624
    24  H    0.168772
    25  C   -0.298207
    26  H    0.152446
    27  H    0.166039
    28  C   -0.031504
    29  C   -0.163835
    30  H    0.151227
    31  C   -0.301824
    32  H    0.150958
    33  H    0.174936
    34  C   -0.339341
    35  H    0.161217
    36  H    0.166620
    37  C   -0.134876
    38  H    0.152475
    39  C   -0.488424
    40  H    0.164195
    41  H    0.167529
    42  H    0.163713
    43  C   -0.149409
    44  H    0.153325
    45  C   -0.485449
    46  H    0.153125
    47  H    0.164487
    48  H    0.161786
    49  C   -0.478171
    50  H    0.163840
    51  H    0.163464
    52  H    0.174165
    53  O   -0.394757
    54  O   -0.469530
    55  H    0.460481
    56  O   -0.759766
    57  H    0.428133
    58  C   -0.307664
    59  H    0.165468
    60  H    0.147731
    61  C   -0.314809
    62  H    0.159571
    63  H    0.154446
    64  C   -0.300871
    65  H    0.151676
    66  H    0.151131
    67  C   -0.146472
    68  H    0.155689
    69  C   -0.476392
    70  H    0.155375
    71  H    0.158861
    72  H    0.156927
    73  C   -0.476257
    74  H    0.156107
    75  H    0.158611
    76  H    0.156720
 Sum of Mulliken charges =   0.00000

 Dipole moment (field-independent basis, Debye):
    X=             -2.3603    Y=              1.3778    Z=             -0.1909  Tot=              2.7396
 Quadrupole moment (field-independent basis, Debye-Ang):
   XX=           -215.1615   YY=           -187.8293   ZZ=           -188.4438
   XY=              6.3619   XZ=            -10.9618   YZ=             -7.0192

 ESP charges:
               1
     1  C    0.467576
     2  H    0.057529
     3  C   -0.404267
     4  H    0.131531
     5  H    0.137879
     6  C   -0.072627
     7  C    0.419564
     8  C   -0.118982
     9  H    0.035121
    10  H    0.071750
    11  C   -0.340994
    12  H    0.087963
    13  H    0.103268
    14  C   -0.308137
    15  H    0.195629
    16  C    0.258819
    17  H    0.020030
    18  C    0.120878
    19  H    0.040332
    20  C   -0.289911
    21  H    0.044569
    22  C    0.103509
    23  H   -0.007478
    24  H   -0.013379
    25  C   -0.191286
    26  H    0.013317
    27  H    0.027398
    28  C    0.517916
    29  C   -0.036468
    30  H    0.013368
    31  C   -0.247881
    32  H    0.091769
    33  H    0.057671
    34  C   -0.145399
    35  H    0.065316
    36  H    0.055869
    37  C   -0.023110
    38  H   -0.000331
    39  C   -0.598367
    40  H    0.126560
    41  H    0.141773
    42  H    0.127913
    43  C    0.096890
    44  H    0.020063
    45  C   -0.487336
    46  H    0.115308
    47  H    0.114515
    48  H    0.123571
    49  C   -0.299886
    50  H    0.050963
    51  H    0.071660
    52  H    0.077688
    53  O   -0.281046
    54  O   -0.441703
    55  H    0.422431
    56  O   -0.721645
    57  H    0.414385
    58  C   -0.177062
    59  H    0.024939
    60  H    0.058182
    61  C    0.228297
    62  H   -0.011636
    63  H   -0.031326
    64  C   -0.290805
    65  H    0.038339
    66  H    0.048764
    67  C    0.457012
    68  H   -0.060236
    69  C   -0.394969
    70  H    0.080190
    71  H    0.085079
    72  H    0.083586
    73  C   -0.416910
    74  H    0.088603
    75  H    0.089880
    76  H    0.088016
 Sum of ESP charges =   0.00000

 Normal termination of Gaussian 09 at Thu Apr 27 16:30:53 2017.
