 Gaussian 09, Revision D.01,
 Gaussian 09:  EM64L-G09RevD.01 24-Apr-2013

 ----------------------------------------------------------------------
 #P HF/6-31G* SCF(Conver=6) NoSymm Test Pop=mk IOp(6/33=2) GFInput GFPr
 int
 ----------------------------------------------------------------------

 ----------------------------------------------
 MEP - Input generated by R.E.D.-III.x MOLECULE
 ----------------------------------------------
 Symbolic Z-matrix:
 Charge =  0 Multiplicity = 1

                          Input orientation:
 ---------------------------------------------------------------------
 Center     Atomic      Atomic             Coordinates (Angstroms)
 Number     Number       Type             X           Y           Z
 ---------------------------------------------------------------------
      1          6           0        0.997304   -0.881279   -1.698446
      2          1           0        1.148161    0.089557   -2.186158
      3          6           0        2.212260   -1.776684   -1.980122
      4          1           0        2.351103   -1.884197   -3.060523
      5          1           0        1.981923   -2.781127   -1.589142
      6          6           0        3.485328   -1.263996   -1.334372
      7          6           0        3.426402   -0.907052    0.155144
      8          6           0        2.128763   -0.079565    0.414514
      9          1           0        2.274155    0.927726    0.000000
     10          1           0        1.987726    0.046682    1.492912
     11          6           0        0.846484   -0.668781   -0.192968
     12          1           0        0.602429   -1.630781    0.281789
     13          1           0        0.000000    0.000000    0.000000
     14          6           0        4.607570   -1.147366   -2.056934
     15          1           0        4.589648   -1.388034   -3.120439
     16          6           0        5.943836   -0.715454   -1.528974
     17          1           0        6.229227    0.241987   -1.994630
     18          6           0        6.012021   -0.589809    0.000597
     19          1           0        6.167219   -1.601148    0.391060
     20          6           0        4.666462   -0.025502    0.539063
     21          1           0        4.513828    0.936743    0.022371
     22          6           0        4.744941    0.293592    2.050582
     23          1           0        4.783047   -0.637778    2.625618
     24          1           0        3.829197    0.806130    2.364709
     25          6           0        5.951083    1.169085    2.442105
     26          1           0        5.839579    2.162867    1.986006
     27          1           0        5.939561    1.318921    3.528187
     28          6           0        7.281531    0.550090    1.976048
     29          6           0        7.168109    0.326944    0.437860
     30          1           0        6.929969    1.320511    0.019761
     31          6           0        8.609202    0.000000    0.000000
     32          1           0        8.784191    0.225934   -1.054935
     33          1           0        8.815986   -1.068158    0.121380
     34          6           0        9.490473    0.859983    0.949494
     35          1           0       10.250599    0.241381    1.437689
     36          1           0       10.035178    1.640803    0.406956
     37          6           0        8.526869    1.503132    1.995838
     38          1           0        8.161410    2.432641    1.537335
     39          6           0        7.542926   -0.776052    2.728082
     40          1           0        6.826358   -1.553263    2.451034
     41          1           0        8.539851   -1.175626    2.527528
     42          1           0        7.456295   -0.630922    3.808748
     43          6           0        9.257549    1.961836    3.290802
     44          1           0       10.105683    2.551503    2.909790
     45          6           0        9.884383    0.856910    4.165203
     46          1           0        9.136246    0.335692    4.769682
     47          1           0       10.605689    1.303161    4.859383
     48          1           0       10.421217    0.106674    3.577598
     49          6           0        3.379325   -2.224037    0.974885
     50          1           0        3.191992   -2.026048    2.034743
     51          1           0        2.581582   -2.885039    0.625212
     52          1           0        4.318689   -2.777423    0.887098
     53          8           0        6.994118   -1.557296   -2.068402
     54          8           0        6.837564   -2.910007   -1.546603
     55          1           0        6.440748   -3.358507   -2.311246
     56          8           0       -0.191918   -1.395429   -2.303663
     57          1           0       -0.404688   -2.246432   -1.895342
     58          6           0        8.434352    2.908897    4.197905
     59          1           0        7.567811    2.364733    4.594614
     60          1           0        9.053409    3.142968    5.074656
     61          6           0        7.939690    4.231221    3.579521
     62          1           0        7.224142    4.020816    2.775752
     63          1           0        7.363692    4.766327    4.345487
     64          6           0        9.028890    5.164359    3.016281
     65          1           0        8.535511    6.052700    2.594590
     66          1           0        9.526062    4.671963    2.169663
     67          6           0       10.113019    5.640338    4.006305
     68          1           0       10.618001    4.754039    4.417039
     69          6           0       11.174479    6.473968    3.270497
     70          1           0       10.730349    7.381250    2.841043
     71          1           0       11.976559    6.786284    3.948980
     72          1           0       11.630431    5.907129    2.450597
     73          6           0        9.525396    6.434422    5.183855
     74          1           0        8.987587    7.321627    4.824749
     75          1           0       10.317951    6.777787    5.858436
     76          1           0        8.824738    5.837503    5.776558
 ---------------------------------------------------------------------

 SCF Done:  E(RHF) =  -1273.67574903     A.U. after    9 cycles

 Alpha  occ. eigenvalues --  -20.62452 -20.62316 -20.56058 -11.28779 -11.28193
 Alpha  occ. eigenvalues --  -11.24941 -11.24426 -11.23283 -11.23161 -11.22968
 Alpha  occ. eigenvalues --  -11.22680 -11.22669 -11.22669 -11.22405 -11.22348
 Alpha  occ. eigenvalues --  -11.22337 -11.22051 -11.21970 -11.21825 -11.21665
 Alpha  occ. eigenvalues --  -11.21617 -11.21525 -11.21446 -11.21360 -11.21014
 Alpha  occ. eigenvalues --  -11.21009 -11.20854 -11.20722 -11.20633 -11.20440
 Alpha  occ. eigenvalues --   -1.45709  -1.35434  -1.22146  -1.15868  -1.13858
 Alpha  occ. eigenvalues --   -1.09646  -1.07986  -1.05897  -1.05587  -1.03085
 Alpha  occ. eigenvalues --   -1.01617  -0.99538  -0.97849  -0.96367  -0.92515
 Alpha  occ. eigenvalues --   -0.92362  -0.92331  -0.91422  -0.90446  -0.86048
 Alpha  occ. eigenvalues --   -0.84024  -0.83006  -0.82777  -0.79314  -0.78553
 Alpha  occ. eigenvalues --   -0.76985  -0.75001  -0.73868  -0.71457  -0.69396
 Alpha  occ. eigenvalues --   -0.69089  -0.67141  -0.65686  -0.65066  -0.64735
 Alpha  occ. eigenvalues --   -0.63782  -0.63486  -0.62817  -0.62266  -0.61360
 Alpha  occ. eigenvalues --   -0.61014  -0.60087  -0.59444  -0.58996  -0.57982
 Alpha  occ. eigenvalues --   -0.57886  -0.57619  -0.56733  -0.55987  -0.55868
 Alpha  occ. eigenvalues --   -0.55471  -0.55009  -0.54291  -0.54060  -0.53756
 Alpha  occ. eigenvalues --   -0.53154  -0.52857  -0.52791  -0.52118  -0.51836
 Alpha  occ. eigenvalues --   -0.50992  -0.50683  -0.50436  -0.50015  -0.49187
 Alpha  occ. eigenvalues --   -0.48385  -0.48271  -0.47667  -0.47102  -0.46994
 Alpha  occ. eigenvalues --   -0.46698  -0.46259  -0.46058  -0.45256  -0.45012
 Alpha  occ. eigenvalues --   -0.44461  -0.44236  -0.44117  -0.43218  -0.42711
 Alpha  occ. eigenvalues --   -0.42556  -0.41895  -0.41643  -0.40364  -0.38612
 Alpha  occ. eigenvalues --   -0.34432
 Alpha virt. eigenvalues --    0.16128   0.19876   0.20915   0.21500   0.22277
 Alpha virt. eigenvalues --    0.22682   0.23084   0.23749   0.24454   0.25268
 Alpha virt. eigenvalues --    0.25671   0.25718   0.26184   0.26644   0.27073

 Mulliken charges:
               1
     1  C    0.193923
     2  H    0.173810
     3  C   -0.368307
     4  H    0.191943
     5  H    0.155459
     6  C    0.083392
     7  C   -0.042269
     8  C   -0.327374
     9  H    0.165794
    10  H    0.174439
    11  C   -0.341342
    12  H    0.145025
    13  H    0.184033
    14  C   -0.279470
    15  H    0.185797
    16  C    0.192028
    17  H    0.186504
    18  C   -0.183871
    19  H    0.209060
    20  C   -0.168201
    21  H    0.156358
    22  C   -0.327769
    23  H    0.166580
    24  H    0.166990
    25  C   -0.301873
    26  H    0.153299
    27  H    0.162869
    28  C   -0.022912
    29  C   -0.171313
    30  H    0.146776
    31  C   -0.305768
    32  H    0.173264
    33  H    0.178408
    34  C   -0.332044
    35  H    0.160650
    36  H    0.161073
    37  C   -0.154559
    38  H    0.158242
    39  C   -0.485902
    40  H    0.162944
    41  H    0.170595
    42  H    0.159416
    43  C   -0.146858
    44  H    0.156924
    45  C   -0.481384
    46  H    0.155999
    47  H    0.156838
    48  H    0.162066
    49  C   -0.480526
    50  H    0.165909
    51  H    0.160029
    52  H    0.180158
    53  O   -0.393397
    54  O   -0.470528
    55  H    0.458972
    56  O   -0.759071
    57  H    0.428518
    58  C   -0.309138
    59  H    0.155567
    60  H    0.156049
    61  C   -0.319918
    62  H    0.160533
    63  H    0.158398
    64  C   -0.303434
    65  H    0.150797
    66  H    0.155783
    67  C   -0.152044
    68  H    0.155933
    69  C   -0.471621
    70  H    0.152355
    71  H    0.158207
    72  H    0.157672
    73  C   -0.476843
    74  H    0.151947
    75  H    0.158381
    76  H    0.162031
 Sum of Mulliken charges =   0.00000

 Dipole moment (field-independent basis, Debye):
    X=             -1.2552    Y=             -0.5560    Z=              1.1382  Tot=              1.7833
 Quadrupole moment (field-independent basis, Debye-Ang):
   XX=           -217.5595   YY=           -185.5876   ZZ=           -193.5604
   XY=              5.3362   XZ=             -0.8583   YZ=              1.9516

 ESP charges:
               1
     1  C    0.546257
     2  H    0.036044
     3  C   -0.432413
     4  H    0.125943
     5  H    0.126345
     6  C    0.156035
     7  C    0.194271
     8  C   -0.016422
     9  H    0.015459
    10  H    0.065233
    11  C   -0.365595
    12  H    0.089992
    13  H    0.095544
    14  C   -0.552394
    15  H    0.211136
    16  C    0.447999
    17  H    0.050539
    18  C   -0.161059
    19  H    0.125562
    20  C   -0.221444
    21  H    0.067299
    22  C   -0.007744
    23  H    0.035144
    24  H    0.020512
    25  C   -0.270832
    26  H    0.056771
    27  H    0.052626
    28  C    0.579584
    29  C    0.162990
    30  H   -0.070771
    31  C   -0.111284
    32  H    0.043685
    33  H    0.061363
    34  C   -0.282586
    35  H    0.067983
    36  H    0.076185
    37  C   -0.077309
    38  H    0.025565
    39  C   -0.567777
    40  H    0.109276
    41  H    0.126539
    42  H    0.116137
    43  C    0.372885
    44  H   -0.026801
    45  C   -0.583673
    46  H    0.124325
    47  H    0.128544
    48  H    0.138075
    49  C   -0.373855
    50  H    0.090285
    51  H    0.097054
    52  H    0.106085
    53  O   -0.337924
    54  O   -0.473231
    55  H    0.462840
    56  O   -0.741874
    57  H    0.418304
    58  C   -0.261285
    59  H    0.047703
    60  H    0.069351
    61  C   -0.059892
    62  H    0.003307
    63  H    0.043405
    64  C   -0.138609
    65  H    0.032368
    66  H    0.016120
    67  C    0.494178
    68  H   -0.049354
    69  C   -0.522239
    70  H    0.116094
    71  H    0.118884
    72  H    0.105629
    73  C   -0.489688
    74  H    0.110822
    75  H    0.104871
    76  H    0.106905
 Sum of ESP charges =   0.00000

 Normal termination of Gaussian 09 at Thu Apr 27 15:59:04 2017.
