 Gaussian 09, Revision D.01,
 Gaussian 09:  EM64L-G09RevD.01 24-Apr-2013

 ----------------------------------------------------------------------
 #P HF/6-31G* SCF(Conver=6) NoSymm Test Pop=mk IOp(6/33=2) GFInput GFPr
 int
 ----------------------------------------------------------------------

 ----------------------------------------------
 MEP - Input generated by R.E.D.-III.x MOLECULE
 ----------------------------------------------
 Symbolic Z-matrix:
 Charge =  0 Multiplicity = 1

                          Input orientation:
 ---------------------------------------------------------------------
 Center     Atomic      Atomic             Coordinates (Angstroms)
 Number     Number       Type             X           Y           Z
 ---------------------------------------------------------------------
      1          6           0        0.996649   -0.899842   -1.689600
      2          1           0        1.152106    0.067002   -2.183842
      3          6           0        2.207954   -1.801933   -1.963418
      4          1           0        2.349883   -1.916471   -3.042350
      5          1           0        1.973735   -2.803773   -1.567766
      6          6           0        3.481496   -1.286816   -1.319302
      7          6           0        3.418143   -0.928886    0.168913
      8          6           0        2.127121   -0.089381    0.421839
      9          1           0        2.280874    0.913661    0.000000
     10          1           0        1.983360    0.045442    1.499090
     11          6           0        0.843137   -0.675095   -0.185655
     12          1           0        0.591707   -1.631904    0.295455
     13          1           0        0.000000    0.000000    0.000000
     14          6           0        4.602893   -1.175627   -2.043433
     15          1           0        4.590971   -1.434360   -3.099851
     16          6           0        5.941048   -0.751342   -1.514200
     17          1           0        6.253760    0.192242   -1.987827
     18          6           0        6.007893   -0.621945    0.016475
     19          1           0        6.167739   -1.633450    0.411800
     20          6           0        4.662583   -0.059701    0.558836
     21          1           0        4.517216    0.907766    0.050998
     22          6           0        4.748123    0.241542    2.073719
     23          1           0        4.795676   -0.696903    2.636358
     24          1           0        3.829856    0.742660    2.398246
     25          6           0        5.949248    1.121070    2.470573
     26          1           0        5.828523    2.119161    2.026618
     27          1           0        5.942232    1.258390    3.558257
     28          6           0        7.282720    0.517626    1.991943
     29          6           0        7.159153    0.302774    0.453420
     30          1           0        6.905158    1.295149    0.044169
     31          6           0        8.600233    0.000000    0.000000
     32          1           0        8.760925    0.248011   -1.053790
     33          1           0        8.823764   -1.066238    0.106255
     34          6           0        9.480188    0.861980    0.948919
     35          1           0       10.250395    0.246875    1.425191
     36          1           0       10.011891    1.653402    0.409057
     37          6           0        8.517636    1.484515    2.008369
     38          1           0        8.137841    2.413448    1.560493
     39          6           0        7.563236   -0.809531    2.734636
     40          1           0        6.845895   -1.589259    2.466405
     41          1           0        8.559614   -1.202848    2.518261
     42          1           0        7.492164   -0.668780    3.816856
     43          6           0        9.254765    1.941274    3.300228
     44          1           0       10.088600    2.549650    2.917737
     45          6           0        9.908447    0.837834    4.156650
     46          1           0        9.175720    0.299341    4.764831
     47          1           0       10.630584    1.289101    4.846523
     48          1           0       10.450322    0.101271    3.556344
     49          6           0        3.354369   -2.243390    0.991902
     50          1           0        3.155037   -2.042970    2.049269
     51          1           0        2.558532   -2.901435    0.633395
     52          1           0        4.291184   -2.803474    0.917129
     53          8           0        6.939877   -1.747937   -1.848767
     54          8           0        7.121635   -1.728249   -3.296812
     55          1           0        8.037389   -1.408929   -3.351271
     56          8           0       -0.195798   -1.411903   -2.291147
     57          1           0       -0.391470   -2.276373   -1.903085
     58          6           0        8.424448    2.863989    4.226037
     59          1           0        7.575231    2.297861    4.629374
     60          1           0        9.053590    3.109400    5.093902
     61          6           0        7.905332    4.186611    3.631202
     62          1           0        7.213506    3.982528    2.806474
     63          1           0        7.306875    4.688776    4.404755
     64          6           0        9.009227    5.150139    3.167067
     65          1           0        9.540713    4.728132    2.301862
     66          1           0        9.756514    5.236580    3.969497
     67          6           0        8.525913    6.567872    2.798296
     68          1           0        7.975823    6.966341    3.664952
     69          6           0        9.722881    7.495712    2.536903
     70          1           0       10.310332    7.143681    1.679121
     71          1           0        9.393697    8.517449    2.315954
     72          1           0       10.392552    7.538668    3.403515
     73          6           0        7.570895    6.570070    1.593547
     74          1           0        8.064774    6.153573    0.705773
     75          1           0        7.253489    7.589780    1.347543
     76          1           0        6.667891    5.980680    1.781606
 ---------------------------------------------------------------------

 SCF Done:  E(RHF) =  -1273.67704435     A.U. after    9 cycles

 Alpha  occ. eigenvalues --  -20.62433 -20.62311 -20.55612 -11.28600 -11.27715
 Alpha  occ. eigenvalues --  -11.24671 -11.23641 -11.23391 -11.23134 -11.23079
 Alpha  occ. eigenvalues --  -11.22720 -11.22709 -11.22682 -11.22506 -11.22317
 Alpha  occ. eigenvalues --  -11.22311 -11.22267 -11.22123 -11.21910 -11.21882
 Alpha  occ. eigenvalues --  -11.21863 -11.21777 -11.21713 -11.21677 -11.21554
 Alpha  occ. eigenvalues --  -11.21487 -11.21283 -11.21233 -11.21085 -11.21045
 Alpha  occ. eigenvalues --   -1.45726  -1.34976  -1.22358  -1.15866  -1.13917
 Alpha  occ. eigenvalues --   -1.09830  -1.08151  -1.05962  -1.05492  -1.03182
 Alpha  occ. eigenvalues --   -1.01654  -0.99801  -0.97973  -0.96308  -0.92784
 Alpha  occ. eigenvalues --   -0.92616  -0.92514  -0.91507  -0.90693  -0.85862
 Alpha  occ. eigenvalues --   -0.84075  -0.82931  -0.82768  -0.79136  -0.78392
 Alpha  occ. eigenvalues --   -0.77015  -0.76171  -0.74389  -0.71981  -0.70541
 Alpha  occ. eigenvalues --   -0.67899  -0.66614  -0.65617  -0.65188  -0.64864
 Alpha  occ. eigenvalues --   -0.64122  -0.63502  -0.62662  -0.61741  -0.61332
 Alpha  occ. eigenvalues --   -0.60688  -0.60062  -0.60010  -0.59354  -0.58937
 Alpha  occ. eigenvalues --   -0.57794  -0.57241  -0.57151  -0.56048  -0.55778
 Alpha  occ. eigenvalues --   -0.55745  -0.55249  -0.54574  -0.53967  -0.53903
 Alpha  occ. eigenvalues --   -0.53421  -0.53312  -0.52821  -0.52358  -0.51882
 Alpha  occ. eigenvalues --   -0.51459  -0.50573  -0.50298  -0.49472  -0.49119
 Alpha  occ. eigenvalues --   -0.48634  -0.48343  -0.48174  -0.47671  -0.47021
 Alpha  occ. eigenvalues --   -0.46923  -0.46210  -0.45487  -0.45376  -0.45192
 Alpha  occ. eigenvalues --   -0.44970  -0.44700  -0.43893  -0.43712  -0.42993
 Alpha  occ. eigenvalues --   -0.42534  -0.42286  -0.41964  -0.40666  -0.38967
 Alpha  occ. eigenvalues --   -0.33834
 Alpha virt. eigenvalues --    0.17008   0.19854   0.20808   0.21369   0.22143
 Alpha virt. eigenvalues --    0.22467   0.23095   0.23548   0.24427   0.24870
 Alpha virt. eigenvalues --    0.24915   0.25599   0.26130   0.26601   0.27176

 Mulliken charges:
               1
     1  C    0.193714
     2  H    0.172334
     3  C   -0.366715
     4  H    0.195165
     5  H    0.154594
     6  C    0.069089
     7  C   -0.041060
     8  C   -0.326256
     9  H    0.164404
    10  H    0.171726
    11  C   -0.339490
    12  H    0.144674
    13  H    0.182377
    14  C   -0.250277
    15  H    0.212840
    16  C    0.191171
    17  H    0.166186
    18  C   -0.190434
    19  H    0.191852
    20  C   -0.164863
    21  H    0.158422
    22  C   -0.328663
    23  H    0.167176
    24  H    0.168837
    25  C   -0.302109
    26  H    0.153692
    27  H    0.163894
    28  C   -0.024113
    29  C   -0.166521
    30  H    0.150983
    31  C   -0.301697
    32  H    0.150881
    33  H    0.175716
    34  C   -0.331483
    35  H    0.162245
    36  H    0.161966
    37  C   -0.154141
    38  H    0.158715
    39  C   -0.485928
    40  H    0.163582
    41  H    0.168532
    42  H    0.162053
    43  C   -0.147767
    44  H    0.159034
    45  C   -0.481879
    46  H    0.156579
    47  H    0.158922
    48  H    0.160893
    49  C   -0.477965
    50  H    0.163930
    51  H    0.163480
    52  H    0.174100
    53  O   -0.394925
    54  O   -0.469412
    55  H    0.460510
    56  O   -0.759720
    57  H    0.428146
    58  C   -0.304163
    59  H    0.155677
    60  H    0.153127
    61  C   -0.316894
    62  H    0.160986
    63  H    0.155022
    64  C   -0.300125
    65  H    0.150484
    66  H    0.152071
    67  C   -0.146919
    68  H    0.151864
    69  C   -0.472341
    70  H    0.152272
    71  H    0.158726
    72  H    0.158317
    73  C   -0.476827
    74  H    0.150550
    75  H    0.159643
    76  H    0.161532
 Sum of Mulliken charges =   0.00000

 Dipole moment (field-independent basis, Debye):
    X=              1.1820    Y=              1.1078    Z=              2.2616  Tot=              2.7820
 Quadrupole moment (field-independent basis, Debye-Ang):
   XX=           -182.6789   YY=           -191.9621   ZZ=           -195.9373
   XY=             12.6584   XZ=             -0.5318   YZ=             -4.1952

 ESP charges:
               1
     1  C    0.502694
     2  H    0.046881
     3  C   -0.457966
     4  H    0.143611
     5  H    0.145532
     6  C   -0.014664
     7  C    0.383918
     8  C   -0.099142
     9  H    0.038328
    10  H    0.070931
    11  C   -0.332045
    12  H    0.084350
    13  H    0.095391
    14  C   -0.347442
    15  H    0.198151
    16  C    0.298692
    17  H    0.001447
    18  C    0.373354
    19  H   -0.028108
    20  C   -0.452911
    21  H    0.062770
    22  C    0.142290
    23  H   -0.000668
    24  H   -0.000036
    25  C   -0.399677
    26  H    0.092022
    27  H    0.066674
    28  C    0.742949
    29  C   -0.197780
    30  H   -0.000163
    31  C   -0.095834
    32  H    0.061168
    33  H    0.015543
    34  C   -0.222514
    35  H    0.065413
    36  H    0.052145
    37  C   -0.064269
    38  H    0.025435
    39  C   -0.670138
    40  H    0.134246
    41  H    0.160042
    42  H    0.135821
    43  C    0.324652
    44  H   -0.022769
    45  C   -0.527975
    46  H    0.109819
    47  H    0.120021
    48  H    0.119194
    49  C   -0.316200
    50  H    0.059338
    51  H    0.076840
    52  H    0.086840
    53  O   -0.308558
    54  O   -0.439970
    55  H    0.424300
    56  O   -0.728999
    57  H    0.415673
    58  C   -0.270261
    59  H    0.046947
    60  H    0.080882
    61  C    0.009585
    62  H   -0.026227
    63  H    0.033253
    64  C   -0.245904
    65  H    0.060334
    66  H    0.060283
    67  C    0.474143
    68  H   -0.050297
    69  C   -0.485959
    70  H    0.109225
    71  H    0.113739
    72  H    0.097453
    73  C   -0.475949
    74  H    0.111314
    75  H    0.105536
    76  H    0.103254
 Sum of ESP charges =   0.00000

 Normal termination of Gaussian 09 at Thu Apr 27 15:54:37 2017.
