 Gaussian 09, Revision D.01,
 Gaussian 09:  EM64L-G09RevD.01 24-Apr-2013

 ----------------------------------------------------------------------
 #P HF/6-31G* SCF(Conver=6) NoSymm Test Pop=mk IOp(6/33=2) GFInput GFPr
 int
 ----------------------------------------------------------------------

 ----------------------------------------------
 MEP - Input generated by R.E.D.-III.x MOLECULE
 ----------------------------------------------
 Symbolic Z-matrix:
 Charge =  0 Multiplicity = 1

                          Input orientation:
 ---------------------------------------------------------------------
 Center     Atomic      Atomic             Coordinates (Angstroms)
 Number     Number       Type             X           Y           Z
 ---------------------------------------------------------------------
      1          6           0       -1.010618    1.983823    1.683527
      2          1           0       -0.991331    1.006715    2.181643
      3          6           0        0.316249    2.707634    1.950959
      4          1           0        0.475576    2.805655    3.029100
      5          1           0        0.224324    3.730809    1.551175
      6          6           0        1.502976    2.015765    1.306731
      7          6           0        1.385828    1.662457   -0.179327
      8          6           0       -0.011401    1.012859   -0.426236
      9          1           0        0.000000    0.000000    0.000000
     10          1           0       -0.174950    0.894818   -1.502661
     11          6           0       -1.198263    1.776748    0.180880
     12          1           0       -1.313298    2.757493   -0.304005
     13          1           0       -2.128809    1.226780    0.000000
     14          6           0        2.600399    1.753197    2.028509
     15          1           0        2.628405    2.017139    3.083354
     16          6           0        3.864688    1.143791    1.498345
     17          1           0        4.046517    0.170358    1.979802
     18          6           0        3.906164    0.992369   -0.031198
     19          1           0        4.209172    1.966062   -0.438248
     20          6           0        2.493697    0.623629   -0.565444
     21          1           0        2.214123   -0.310397   -0.051291
     22          6           0        2.535883    0.305927   -2.077499
     23          1           0        2.709343    1.227509   -2.643681
     24          1           0        1.557826   -0.066899   -2.400289
     25          6           0        3.605124   -0.729223   -2.476813
     26          1           0        3.354040   -1.703250   -2.032475
     27          1           0        3.566665   -0.864597   -3.562042
     28          6           0        5.013051   -0.318483   -2.000412
     29          6           0        4.912179   -0.090467   -0.463844
     30          1           0        4.516294   -1.038345   -0.060353
     31          6           0        6.374278    0.000000    0.000000
     32          1           0        6.489522   -0.250603    1.059125
     33          1           0        6.758324    1.017736   -0.122247
     34          6           0        7.116704   -1.002688   -0.923641
     35          1           0        8.002988   -0.535937   -1.369751
     36          1           0        7.476050   -1.869820   -0.361344
     37          6           0        6.110243   -1.439497   -2.041225
     38          1           0        5.611777   -2.363592   -1.707074
     39          6           0        5.501895    0.940860   -2.751953
     40          1           0        4.856623    1.805940   -2.579556
     41          1           0        6.513699    1.229450   -2.452134
     42          1           0        5.520410    0.762734   -3.832080
     43          6           0        6.818760   -1.775237   -3.380169
     44          1           0        7.372170   -0.878908   -3.693988
     45          6           0        5.844945   -2.151907   -4.509684
     46          1           0        5.212369   -2.999869   -4.217870
     47          1           0        6.383588   -2.439542   -5.417604
     48          1           0        5.187564   -1.323179   -4.781037
     49          6           0        1.507366    2.968710   -1.008861
     50          1           0        1.278207    2.794150   -2.064773
     51          1           0        0.814492    3.734905   -0.651503
     52          1           0        2.514576    3.390050   -0.938953
     53          8           0        4.992913    1.996161    1.820204
     54          8           0        5.178212    1.963030    3.267545
     55          1           0        6.041056    1.520086    3.320848
     56          8           0       -2.117542    2.660985    2.285347
     57          1           0       -2.190703    3.542814    1.893927
     58          6           0        7.848359   -2.912573   -3.155094
     59          1           0        8.503844   -2.643849   -2.318609
     60          1           0        7.300131   -3.811463   -2.835295
     61          6           0        8.747108   -3.285962   -4.350027
     62          1           0        9.381654   -4.127649   -4.037795
     63          1           0        8.137515   -3.666312   -5.177626
     64          6           0        9.654128   -2.146712   -4.841077
     65          1           0       10.157978   -1.702407   -3.970129
     66          1           0        9.046225   -1.343470   -5.282108
     67          6           0       10.730409   -2.563012   -5.864700
     68          1           0       11.313634   -3.382856   -5.417283
     69          6           0       10.124422   -3.080054   -7.179636
     70          1           0        9.507880   -2.305291   -7.654084
     71          1           0       10.911024   -3.357998   -7.890343
     72          1           0        9.493856   -3.961338   -7.025175
     73          6           0       11.694649   -1.398059   -6.138694
     74          1           0       11.163766   -0.548425   -6.587125
     75          1           0       12.490264   -1.694459   -6.831748
     76          1           0       12.168022   -1.044766   -5.215395
 ---------------------------------------------------------------------

 SCF Done:  E(RHF) =  -1273.68337888     A.U. after    9 cycles

 Alpha  occ. eigenvalues --  -20.62422 -20.62302 -20.55602 -11.28585 -11.27703
 Alpha  occ. eigenvalues --  -11.24644 -11.23625 -11.23327 -11.23109 -11.23054
 Alpha  occ. eigenvalues --  -11.22700 -11.22617 -11.22521 -11.22495 -11.22333
 Alpha  occ. eigenvalues --  -11.22303 -11.22235 -11.22072 -11.21865 -11.21848
 Alpha  occ. eigenvalues --  -11.21800 -11.21705 -11.21622 -11.21597 -11.21582
 Alpha  occ. eigenvalues --  -11.21423 -11.21226 -11.21157 -11.21154 -11.21067
 Alpha  occ. eigenvalues --   -1.45716  -1.34966  -1.22346  -1.15858  -1.13930
 Alpha  occ. eigenvalues --   -1.09866  -1.08165  -1.05958  -1.05468  -1.03178
 Alpha  occ. eigenvalues --   -1.01656  -0.99562  -0.98019  -0.96218  -0.93171
 Alpha  occ. eigenvalues --   -0.92505  -0.92165  -0.91256  -0.90782  -0.85846
 Alpha  occ. eigenvalues --   -0.84398  -0.82946  -0.82559  -0.78792  -0.78079
 Alpha  occ. eigenvalues --   -0.77048  -0.76157  -0.74029  -0.72488  -0.70866
 Alpha  occ. eigenvalues --   -0.67847  -0.66602  -0.66066  -0.65229  -0.64997
 Alpha  occ. eigenvalues --   -0.63996  -0.63484  -0.62513  -0.61712  -0.61311
 Alpha  occ. eigenvalues --   -0.61088  -0.60089  -0.59449  -0.59236  -0.58370
 Alpha  occ. eigenvalues --   -0.57940  -0.57794  -0.56969  -0.55930  -0.55796
 Alpha  occ. eigenvalues --   -0.55356  -0.54963  -0.54492  -0.53869  -0.53679
 Alpha  occ. eigenvalues --   -0.53611  -0.53219  -0.53069  -0.52573  -0.52239
 Alpha  occ. eigenvalues --   -0.51074  -0.50795  -0.50014  -0.49635  -0.49303
 Alpha  occ. eigenvalues --   -0.48440  -0.48146  -0.47971  -0.47545  -0.47123
 Alpha  occ. eigenvalues --   -0.46379  -0.46168  -0.45556  -0.45275  -0.45169
 Alpha  occ. eigenvalues --   -0.44851  -0.44433  -0.44164  -0.43826  -0.43399
 Alpha  occ. eigenvalues --   -0.42806  -0.42310  -0.41884  -0.40701  -0.38983
 Alpha  occ. eigenvalues --   -0.33821
 Alpha virt. eigenvalues --    0.17022   0.20438   0.20916   0.21578   0.22110
 Alpha virt. eigenvalues --    0.22783   0.22978   0.24058   0.24866   0.25109
 Alpha virt. eigenvalues --    0.25374   0.25735   0.26353   0.26629   0.26932

 Mulliken charges:
               1
     1  C    0.193718
     2  H    0.172293
     3  C   -0.366684
     4  H    0.195105
     5  H    0.154576
     6  C    0.068990
     7  C   -0.040923
     8  C   -0.326208
     9  H    0.164430
    10  H    0.171776
    11  C   -0.339509
    12  H    0.144631
    13  H    0.182347
    14  C   -0.249919
    15  H    0.212636
    16  C    0.189806
    17  H    0.166341
    18  C   -0.189308
    19  H    0.191591
    20  C   -0.164891
    21  H    0.158647
    22  C   -0.328682
    23  H    0.165546
    24  H    0.168790
    25  C   -0.298274
    26  H    0.152525
    27  H    0.165837
    28  C   -0.031165
    29  C   -0.164012
    30  H    0.151262
    31  C   -0.301891
    32  H    0.150860
    33  H    0.174999
    34  C   -0.339273
    35  H    0.161330
    36  H    0.166617
    37  C   -0.134384
    38  H    0.152142
    39  C   -0.488448
    40  H    0.164243
    41  H    0.167684
    42  H    0.163311
    43  C   -0.155326
    44  H    0.159764
    45  C   -0.485624
    46  H    0.152992
    47  H    0.164496
    48  H    0.161867
    49  C   -0.478122
    50  H    0.163812
    51  H    0.163445
    52  H    0.174210
    53  O   -0.394742
    54  O   -0.469512
    55  H    0.460469
    56  O   -0.759764
    57  H    0.428133
    58  C   -0.309436
    59  H    0.164546
    60  H    0.150407
    61  C   -0.313791
    62  H    0.155227
    63  H    0.159170
    64  C   -0.299965
    65  H    0.150936
    66  H    0.151195
    67  C   -0.146877
    68  H    0.151514
    69  C   -0.477115
    70  H    0.151307
    71  H    0.159046
    72  H    0.162747
    73  C   -0.472324
    74  H    0.152488
    75  H    0.158542
    76  H    0.157827
 Sum of Mulliken charges =   0.00000

 Dipole moment (field-independent basis, Debye):
    X=              1.1629    Y=             -1.2517    Z=             -2.1396  Tot=              2.7381
 Quadrupole moment (field-independent basis, Debye-Ang):
   XX=           -188.5332   YY=           -191.3187   ZZ=           -197.1343
   XY=            -10.2079   XZ=              5.1022   YZ=             -8.1284

 ESP charges:
               1
     1  C    0.516813
     2  H    0.047339
     3  C   -0.479427
     4  H    0.152190
     5  H    0.155696
     6  C   -0.082445
     7  C    0.440636
     8  C   -0.078939
     9  H    0.025357
    10  H    0.059324
    11  C   -0.339785
    12  H    0.082818
    13  H    0.096316
    14  C   -0.287860
    15  H    0.186627
    16  C    0.314905
    17  H   -0.006055
    18  C    0.101174
    19  H    0.017185
    20  C   -0.353563
    21  H    0.051732
    22  C    0.134660
    23  H   -0.010609
    24  H   -0.010818
    25  C   -0.299224
    26  H    0.032968
    27  H    0.051628
    28  C    0.656265
    29  C    0.051208
    30  H   -0.015651
    31  C   -0.200517
    32  H    0.062728
    33  H    0.028145
    34  C   -0.045158
    35  H    0.019541
    36  H    0.020075
    37  C   -0.218403
    38  H   -0.006184
    39  C   -0.611271
    40  H    0.123614
    41  H    0.135934
    42  H    0.116874
    43  C    0.448464
    44  H   -0.078585
    45  C   -0.472771
    46  H    0.086434
    47  H    0.111527
    48  H    0.090014
    49  C   -0.334715
    50  H    0.059320
    51  H    0.077340
    52  H    0.093784
    53  O   -0.290420
    54  O   -0.447238
    55  H    0.427668
    56  O   -0.733434
    57  H    0.417037
    58  C   -0.100230
    59  H    0.022239
    60  H    0.014793
    61  C   -0.100763
    62  H    0.034401
    63  H    0.044228
    64  C   -0.177860
    65  H    0.044461
    66  H    0.043927
    67  C    0.440404
    68  H   -0.044265
    69  C   -0.424715
    70  H    0.100627
    71  H    0.095088
    72  H    0.082297
    73  C   -0.481088
    74  H    0.106627
    75  H    0.112188
    76  H    0.097377
 Sum of ESP charges =   0.00000

 Normal termination of Gaussian 09 at Thu Apr 27 14:57:13 2017.
