 Gaussian 09, Revision D.01,
 Gaussian 09:  EM64L-G09RevD.01 24-Apr-2013

 ----------------------------------------------------------------------
 #P HF/6-31G* SCF(Conver=6) NoSymm Test Pop=mk IOp(6/33=2) GFInput GFPr
 int
 ----------------------------------------------------------------------

 ----------------------------------------------
 MEP - Input generated by R.E.D.-III.x MOLECULE
 ----------------------------------------------
 Symbolic Z-matrix:
 Charge =  0 Multiplicity = 1

                          Input orientation:
 ---------------------------------------------------------------------
 Center     Atomic      Atomic             Coordinates (Angstroms)
 Number     Number       Type             X           Y           Z
 ---------------------------------------------------------------------
      1          6           0        1.759819   -1.246957   -0.076154
      2          1           0        1.872931   -1.118099   -1.159598
      3          6           0        3.151507   -1.312070    0.567890
      4          1           0        3.729978   -2.126734    0.121710
      5          1           0        3.014885   -1.567720    1.631433
      6          6           0        3.913587   -0.005074    0.454005
      7          6           0        3.187824    1.270204    0.894418
      8          6           0        1.746856    1.253665    0.295521
      9          1           0        1.820235    1.452365   -0.782814
     10          1           0        1.163249    2.075528    0.723660
     11          6           0        0.978050   -0.062265    0.490554
     12          1           0        0.783394   -0.239841    1.558636
     13          1           0        0.000000    0.000000    0.000000
     14          6           0        5.173802    0.000000    0.000000
     15          1           0        5.640087   -0.933165   -0.308083
     16          6           0        6.059966    1.207037   -0.092550
     17          1           0        6.318456    1.406701   -1.144100
     18          6           0        5.481330    2.474016    0.558746
     19          1           0        5.696644    2.405168    1.633212
     20          6           0        3.943132    2.526656    0.341014
     21          1           0        3.794530    2.502690   -0.750882
     22          6           0        3.356256    3.865527    0.842613
     23          1           0        3.387216    3.895153    1.937207
     24          1           0        2.297395    3.926260    0.568998
     25          6           0        4.070994    5.114835    0.292548
     26          1           0        3.916176    5.174693   -0.794501
     27          1           0        3.595949    6.001959    0.722481
     28          6           0        5.587037    5.084029    0.573661
     29          6           0        6.121270    3.748730   -0.022103
     30          1           0        5.821927    3.770544   -1.084133
     31          6           0        7.649010    3.911231    0.000000
     32          1           0        8.144897    3.270776   -0.736027
     33          1           0        8.055017    3.633265    0.977782
     34          6           0        7.863339    5.419741   -0.296868
     35          1           0        8.544959    5.865689    0.437228
     36          1           0        8.325615    5.570280   -1.277079
     37          6           0        6.460108    6.111887   -0.228397
     38          1           0        6.042389    6.133312   -1.247748
     39          6           0        5.866927    5.206842    2.089017
     40          1           0        5.432866    4.382982    2.661161
     41          1           0        6.938813    5.220446    2.307769
     42          1           0        5.441419    6.134251    2.486099
     43          6           0        6.547195    7.586493    0.246952
     44          1           0        7.017290    7.585583    1.240798
     45          6           0        5.174425    8.268983    0.373129
     46          1           0        4.628205    8.233388   -0.578040
     47          1           0        5.278644    9.321097    0.654334
     48          1           0        4.548932    7.798550    1.134674
     49          6           0        3.107681    1.282775    2.444467
     50          1           0        2.467594    2.094250    2.804707
     51          1           0        2.691267    0.348740    2.830636
     52          1           0        4.099219    1.400352    2.891582
     53          8           0        7.302796    0.958982    0.612361
     54          8           0        8.037880   -0.063086   -0.126112
     55          1           0        8.804284    0.455390   -0.421618
     56          8           0        1.053003   -2.483391    0.056654
     57          1           0        0.922472   -2.665665    0.997886
     58          6           0        7.464795    8.389455   -0.710820
     59          1           0        8.420934    7.865811   -0.814375
     60          1           0        7.008168    8.377166   -1.711888
     61          6           0        7.752342    9.856906   -0.334400
     62          1           0        8.388928   10.284809   -1.119349
     63          1           0        6.823959   10.439915   -0.369435
     64          6           0        8.411522   10.087006    1.038866
     65          1           0        7.726759    9.752174    1.829889
     66          1           0        8.528902   11.170795    1.186865
     67          6           0        9.783811    9.418919    1.268762
     68          1           0        9.666218    8.334023    1.133326
     69          6           0       10.848166    9.903978    0.271559
     70          1           0       10.987442   10.990182    0.349039
     71          1           0       11.816134    9.430575    0.471580
     72          1           0       10.578593    9.676010   -0.764729
     73          6           0       10.252903    9.653581    2.713731
     74          1           0       10.394395   10.724257    2.909638
     75          1           0       11.207246    9.151508    2.909556
     76          1           0        9.521123    9.277333    3.437930
 ---------------------------------------------------------------------

 SCF Done:  E(RHF) =  -1273.68181472     A.U. after    9 cycles

 Alpha  occ. eigenvalues --  -20.62436 -20.62317 -20.55611 -11.28600 -11.27712
 Alpha  occ. eigenvalues --  -11.24658 -11.23639 -11.23341 -11.23140 -11.23073
 Alpha  occ. eigenvalues --  -11.22712 -11.22593 -11.22574 -11.22505 -11.22371
 Alpha  occ. eigenvalues --  -11.22313 -11.22262 -11.22089 -11.21877 -11.21859
 Alpha  occ. eigenvalues --  -11.21823 -11.21718 -11.21636 -11.21621 -11.21576
 Alpha  occ. eigenvalues --  -11.21459 -11.21259 -11.21180 -11.21173 -11.21080
 Alpha  occ. eigenvalues --   -1.45728  -1.34975  -1.22361  -1.15881  -1.13951
 Alpha  occ. eigenvalues --   -1.09932  -1.08121  -1.05866  -1.05483  -1.03199
 Alpha  occ. eigenvalues --   -1.01624  -0.99499  -0.98047  -0.96230  -0.93212
 Alpha  occ. eigenvalues --   -0.92569  -0.92186  -0.91385  -0.90810  -0.85861
 Alpha  occ. eigenvalues --   -0.84524  -0.83005  -0.82688  -0.79229  -0.78255
 Alpha  occ. eigenvalues --   -0.77085  -0.75490  -0.73490  -0.72558  -0.70891
 Alpha  occ. eigenvalues --   -0.67860  -0.66614  -0.66123  -0.65169  -0.64674
 Alpha  occ. eigenvalues --   -0.63922  -0.63511  -0.63018  -0.62135  -0.61567
 Alpha  occ. eigenvalues --   -0.60754  -0.60310  -0.59542  -0.58885  -0.58769
 Alpha  occ. eigenvalues --   -0.57863  -0.57567  -0.56558  -0.56123  -0.55973
 Alpha  occ. eigenvalues --   -0.55557  -0.55128  -0.54669  -0.53863  -0.53727
 Alpha  occ. eigenvalues --   -0.53647  -0.53228  -0.52806  -0.52498  -0.52220
 Alpha  occ. eigenvalues --   -0.51420  -0.50752  -0.49991  -0.49495  -0.49008
 Alpha  occ. eigenvalues --   -0.48447  -0.48226  -0.47932  -0.47629  -0.47188
 Alpha  occ. eigenvalues --   -0.46924  -0.46178  -0.45792  -0.45220  -0.44963
 Alpha  occ. eigenvalues --   -0.44939  -0.44432  -0.44018  -0.43793  -0.43351
 Alpha  occ. eigenvalues --   -0.42701  -0.42319  -0.41864  -0.40720  -0.39002
 Alpha  occ. eigenvalues --   -0.33834
 Alpha virt. eigenvalues --    0.17007   0.20095   0.20622   0.21520   0.21718
 Alpha virt. eigenvalues --    0.22680   0.23063   0.23526   0.24726   0.25141
 Alpha virt. eigenvalues --    0.25388   0.25741   0.26421   0.26564   0.27230

 Mulliken charges:
               1
     1  C    0.193745
     2  H    0.172293
     3  C   -0.366702
     4  H    0.195125
     5  H    0.154598
     6  C    0.069020
     7  C   -0.040962
     8  C   -0.326287
     9  H    0.164441
    10  H    0.171800
    11  C   -0.339521
    12  H    0.144638
    13  H    0.182378
    14  C   -0.249844
    15  H    0.212633
    16  C    0.189687
    17  H    0.166393
    18  C   -0.189220
    19  H    0.191615
    20  C   -0.164888
    21  H    0.158693
    22  C   -0.328693
    23  H    0.165519
    24  H    0.168902
    25  C   -0.298360
    26  H    0.152618
    27  H    0.165887
    28  C   -0.031034
    29  C   -0.164175
    30  H    0.151393
    31  C   -0.301928
    32  H    0.151192
    33  H    0.175129
    34  C   -0.342779
    35  H    0.163265
    36  H    0.166900
    37  C   -0.133736
    38  H    0.152467
    39  C   -0.488389
    40  H    0.164414
    41  H    0.167313
    42  H    0.163300
    43  C   -0.154655
    44  H    0.157614
    45  C   -0.485933
    46  H    0.153068
    47  H    0.165442
    48  H    0.161846
    49  C   -0.478051
    50  H    0.163792
    51  H    0.163480
    52  H    0.174244
    53  O   -0.394808
    54  O   -0.469486
    55  H    0.460486
    56  O   -0.759765
    57  H    0.428145
    58  C   -0.313872
    59  H    0.168337
    60  H    0.150805
    61  C   -0.317783
    62  H    0.159833
    63  H    0.159259
    64  C   -0.302977
    65  H    0.155168
    66  H    0.151762
    67  C   -0.154625
    68  H    0.156433
    69  C   -0.476847
    70  H    0.152710
    71  H    0.158592
    72  H    0.161830
    73  C   -0.471603
    74  H    0.153086
    75  H    0.158489
    76  H    0.157143
 Sum of Mulliken charges =   0.00000

 Dipole moment (field-independent basis, Debye):
    X=              0.0116    Y=              2.6603    Z=              0.2052  Tot=              2.6682
 Quadrupole moment (field-independent basis, Debye-Ang):
   XX=           -190.0057   YY=           -192.4366   ZZ=           -188.9257
   XY=             10.0352   XZ=            -10.2798   YZ=             -4.5417

 ESP charges:
               1
     1  C    0.488764
     2  H    0.053118
     3  C   -0.448945
     4  H    0.143103
     5  H    0.148354
     6  C   -0.051774
     7  C    0.407453
     8  C   -0.151760
     9  H    0.042319
    10  H    0.080269
    11  C   -0.315714
    12  H    0.084030
    13  H    0.095372
    14  C   -0.325775
    15  H    0.186816
    16  C    0.417200
    17  H   -0.022373
    18  C   -0.109396
    19  H    0.074696
    20  C   -0.237426
    21  H    0.042589
    22  C    0.064384
    23  H    0.004557
    24  H   -0.004598
    25  C   -0.194147
    26  H    0.017370
    27  H    0.039711
    28  C    0.514667
    29  C    0.107493
    30  H    0.007755
    31  C   -0.258468
    32  H    0.083027
    33  H    0.052742
    34  C   -0.090894
    35  H    0.059651
    36  H    0.044265
    37  C   -0.256020
    38  H    0.019035
    39  C   -0.584550
    40  H    0.129679
    41  H    0.136430
    42  H    0.117399
    43  C    0.449677
    44  H   -0.057044
    45  C   -0.523160
    46  H    0.097341
    47  H    0.126967
    48  H    0.109362
    49  C   -0.287903
    50  H    0.049530
    51  H    0.067819
    52  H    0.077620
    53  O   -0.293864
    54  O   -0.447135
    55  H    0.423175
    56  O   -0.725945
    57  H    0.414085
    58  C   -0.051185
    59  H   -0.010219
    60  H    0.012196
    61  C   -0.124888
    62  H    0.036567
    63  H    0.038883
    64  C   -0.125889
    65  H    0.007270
    66  H    0.026296
    67  C    0.546096
    68  H   -0.094375
    69  C   -0.466313
    70  H    0.099623
    71  H    0.094797
    72  H    0.103921
    73  C   -0.494972
    74  H    0.102083
    75  H    0.111979
    76  H    0.097199
 Sum of ESP charges =   0.00000

 Normal termination of Gaussian 09 at Thu Apr 27 15:03:37 2017.
