 Gaussian 09, Revision D.01,
 Gaussian 09:  EM64L-G09RevD.01 24-Apr-2013

 ----------------------------------------------------------------------
 #P HF/6-31G* SCF(Conver=6) NoSymm Test Pop=mk IOp(6/33=2) GFInput GFPr
 int
 ----------------------------------------------------------------------

 ----------------------------------------------
 MEP - Input generated by R.E.D.-III.x MOLECULE
 ----------------------------------------------
 Symbolic Z-matrix:
 Charge =  0 Multiplicity = 1

                          Input orientation:
 ---------------------------------------------------------------------
 Center     Atomic      Atomic             Coordinates (Angstroms)
 Number     Number       Type             X           Y           Z
 ---------------------------------------------------------------------
      1          6           0       -1.011201    1.982098    1.684430
      2          1           0       -0.991958    1.004554    2.181708
      3          6           0        0.315623    2.705742    1.952534
      4          1           0        0.474770    2.803120    3.030757
      5          1           0        0.223678    3.729122    1.553327
      6          6           0        1.502499    2.014393    1.308024
      7          6           0        1.385666    1.662691   -0.178421
      8          6           0       -0.011470    1.013002   -0.425868
      9          1           0        0.000000    0.000000    0.000000
     10          1           0       -0.174947    0.895384   -1.502352
     11          6           0       -1.198571    1.776363    0.181584
     12          1           0       -1.313607    2.757542   -0.302417
     13          1           0       -2.129000    1.226433    0.000000
     14          6           0        2.599537    1.750898    2.030042
     15          1           0        2.627078    2.013765    3.085152
     16          6           0        3.864013    1.142096    1.499756
     17          1           0        4.045872    0.168287    1.980451
     18          6           0        3.906023    0.992251   -0.029913
     19          1           0        4.209230    1.966388   -0.435754
     20          6           0        2.493850    0.624791   -0.565963
     21          1           0        2.213731   -0.310563   -0.054555
     22          6           0        2.537821    0.311418   -2.078897
     23          1           0        2.714057    1.234390   -2.641937
     24          1           0        1.559593   -0.058522   -2.404514
     25          6           0        3.605690   -0.724589   -2.479208
     26          1           0        3.352133   -1.699075   -2.037228
     27          1           0        3.569454   -0.857508   -3.564810
     28          6           0        5.013456   -0.317086   -1.999767
     29          6           0        4.911976   -0.090407   -0.463242
     30          1           0        4.516148   -1.038564   -0.060301
     31          6           0        6.374257    0.000000    0.000000
     32          1           0        6.490023   -0.247808    1.059681
     33          1           0        6.759055    1.017049   -0.125284
     34          6           0        7.114803   -1.006404   -0.921195
     35          1           0        8.005777   -0.545491   -1.364181
     36          1           0        7.466243   -1.874316   -0.355161
     37          6           0        6.109334   -1.439381   -2.041621
     38          1           0        5.609671   -2.363909   -1.710563
     39          6           0        5.505163    0.943204   -2.748312
     40          1           0        4.862951    1.809724   -2.571796
     41          1           0        6.518292    1.227920   -2.449292
     42          1           0        5.521437    0.769133   -3.829035
     43          6           0        6.816068   -1.770961   -3.381907
     44          1           0        7.376877   -0.876873   -3.694469
     45          6           0        5.835094   -2.138305   -4.509942
     46          1           0        5.166750   -2.950089   -4.196765
     47          1           0        6.367308   -2.475984   -5.404252
     48          1           0        5.213571   -1.292194   -4.811656
     49          6           0        1.506667    2.969929   -1.006471
     50          1           0        1.276544    2.796593   -2.062373
     51          1           0        0.814184    3.735764   -0.647590
     52          1           0        2.514013    3.391082   -0.937003
     53          8           0        4.992094    1.994353    1.822497
     54          8           0        5.175668    1.961733    3.270115
     55          1           0        6.039627    1.521150    3.324498
     56          8           0       -2.118232    2.658661    2.286688
     57          1           0       -2.191659    3.540728    1.895851
     58          6           0        7.847805   -2.911140   -3.181347
     59          1           0        8.395502   -2.743106   -2.249192
     60          1           0        7.303214   -3.858894   -3.047243
     61          6           0        8.868639   -3.068030   -4.320448
     62          1           0        8.346226   -3.194729   -5.276282
     63          1           0        9.443623   -2.136983   -4.416823
     64          6           0        9.826409   -4.263104   -4.155657
     65          1           0       10.447055   -4.341082   -5.060689
     66          1           0        9.228569   -5.185378   -4.119422
     67          6           0       10.766276   -4.244217   -2.931107
     68          1           0       10.149657   -4.188460   -2.022611
     69          6           0       11.569258   -5.553101   -2.860549
     70          1           0       12.212728   -5.665226   -3.742725
     71          1           0       12.213772   -5.577816   -1.974430
     72          1           0       10.907670   -6.426021   -2.818681
     73          6           0       11.711135   -3.032068   -2.935329
     74          1           0       12.336099   -3.028916   -3.837929
     75          1           0       12.381075   -3.054988   -2.068288
     76          1           0       11.166216   -2.082970   -2.904830
 ---------------------------------------------------------------------

 SCF Done:  E(RHF) =  -1273.68296565     A.U. after    9 cycles

 Alpha  occ. eigenvalues --  -20.62436 -20.62317 -20.55610 -11.28600 -11.27711
 Alpha  occ. eigenvalues --  -11.24655 -11.23637 -11.23341 -11.23134 -11.23071
 Alpha  occ. eigenvalues --  -11.22711 -11.22625 -11.22541 -11.22503 -11.22376
 Alpha  occ. eigenvalues --  -11.22312 -11.22261 -11.22083 -11.21874 -11.21858
 Alpha  occ. eigenvalues --  -11.21811 -11.21708 -11.21651 -11.21644 -11.21518
 Alpha  occ. eigenvalues --  -11.21461 -11.21236 -11.21162 -11.21146 -11.21088
 Alpha  occ. eigenvalues --   -1.45728  -1.34973  -1.22362  -1.15879  -1.13948
 Alpha  occ. eigenvalues --   -1.09853  -1.08180  -1.05944  -1.05480  -1.03195
 Alpha  occ. eigenvalues --   -1.01649  -0.99644  -0.98039  -0.96243  -0.93166
 Alpha  occ. eigenvalues --   -0.92530  -0.92160  -0.91184  -0.90819  -0.85858
 Alpha  occ. eigenvalues --   -0.84101  -0.82963  -0.82551  -0.79520  -0.78292
 Alpha  occ. eigenvalues --   -0.77074  -0.75167  -0.74579  -0.72471  -0.70847
 Alpha  occ. eigenvalues --   -0.67869  -0.66613  -0.66003  -0.65165  -0.64617
 Alpha  occ. eigenvalues --   -0.63872  -0.63416  -0.63027  -0.62147  -0.61585
 Alpha  occ. eigenvalues --   -0.60761  -0.60365  -0.59654  -0.59026  -0.58220
 Alpha  occ. eigenvalues --   -0.57885  -0.57631  -0.56539  -0.56236  -0.55824
 Alpha  occ. eigenvalues --   -0.55578  -0.54934  -0.54449  -0.54082  -0.53813
 Alpha  occ. eigenvalues --   -0.53572  -0.53209  -0.53098  -0.52639  -0.52258
 Alpha  occ. eigenvalues --   -0.51090  -0.50702  -0.49932  -0.49516  -0.48932
 Alpha  occ. eigenvalues --   -0.48464  -0.48156  -0.48066  -0.47374  -0.47177
 Alpha  occ. eigenvalues --   -0.46702  -0.46143  -0.45829  -0.45209  -0.44949
 Alpha  occ. eigenvalues --   -0.44929  -0.44548  -0.44222  -0.43765  -0.43727
 Alpha  occ. eigenvalues --   -0.42642  -0.42322  -0.41875  -0.40718  -0.38973
 Alpha  occ. eigenvalues --   -0.33832
 Alpha virt. eigenvalues --    0.17012   0.20438   0.20906   0.21562   0.21840
 Alpha virt. eigenvalues --    0.22811   0.23002   0.24076   0.24623   0.25064
 Alpha virt. eigenvalues --    0.25390   0.25953   0.26197   0.26505   0.27185

 Mulliken charges:
               1
     1  C    0.193742
     2  H    0.172296
     3  C   -0.366715
     4  H    0.195125
     5  H    0.154596
     6  C    0.069074
     7  C   -0.040960
     8  C   -0.326183
     9  H    0.164428
    10  H    0.171779
    11  C   -0.339538
    12  H    0.144656
    13  H    0.182369
    14  C   -0.250007
    15  H    0.212706
    16  C    0.189884
    17  H    0.166317
    18  C   -0.189509
    19  H    0.191625
    20  C   -0.164782
    21  H    0.158629
    22  C   -0.328793
    23  H    0.165664
    24  H    0.168797
    25  C   -0.298145
    26  H    0.152350
    27  H    0.166247
    28  C   -0.031474
    29  C   -0.163801
    30  H    0.151258
    31  C   -0.301617
    32  H    0.151157
    33  H    0.175078
    34  C   -0.339863
    35  H    0.160968
    36  H    0.165844
    37  C   -0.134977
    38  H    0.152483
    39  C   -0.488593
    40  H    0.164335
    41  H    0.167457
    42  H    0.163822
    43  C   -0.147649
    44  H    0.153690
    45  C   -0.485752
    46  H    0.153746
    47  H    0.164004
    48  H    0.161806
    49  C   -0.478187
    50  H    0.163870
    51  H    0.163486
    52  H    0.174163
    53  O   -0.394794
    54  O   -0.469511
    55  H    0.460487
    56  O   -0.759756
    57  H    0.428144
    58  C   -0.315207
    59  H    0.171645
    60  H    0.147473
    61  C   -0.313270
    62  H    0.158681
    63  H    0.154217
    64  C   -0.297177
    65  H    0.151356
    66  H    0.152018
    67  C   -0.153060
    68  H    0.155471
    69  C   -0.471675
    70  H    0.152662
    71  H    0.158176
    72  H    0.157771
    73  C   -0.476339
    74  H    0.152658
    75  H    0.158461
    76  H    0.160663
 Sum of Mulliken charges =   0.00000

 Dipole moment (field-independent basis, Debye):
    X=              1.0466    Y=             -1.1511    Z=             -2.1516  Tot=              2.6552
 Quadrupole moment (field-independent basis, Debye-Ang):
   XX=           -190.9996   YY=           -192.0692   ZZ=           -196.2781
   XY=             -8.3010   XZ=              5.0731   YZ=             -8.4272

 ESP charges:
               1
     1  C    0.520642
     2  H    0.045916
     3  C   -0.480539
     4  H    0.151801
     5  H    0.155274
     6  C   -0.077083
     7  C    0.439445
     8  C   -0.074436
     9  H    0.025277
    10  H    0.058085
    11  C   -0.340155
    12  H    0.082669
    13  H    0.095591
    14  C   -0.289237
    15  H    0.187205
    16  C    0.303680
    17  H   -0.001975
    18  C    0.153816
    19  H    0.010204
    20  C   -0.397356
    21  H    0.058253
    22  C    0.172651
    23  H   -0.018631
    24  H   -0.014988
    25  C   -0.322694
    26  H    0.035760
    27  H    0.048229
    28  C    0.682702
    29  C   -0.005037
    30  H   -0.006141
    31  C   -0.220443
    32  H    0.073550
    33  H    0.039306
    34  C   -0.140057
    35  H    0.051581
    36  H    0.054270
    37  C   -0.049336
    38  H   -0.036752
    39  C   -0.619360
    40  H    0.126599
    41  H    0.133247
    42  H    0.119651
    43  C    0.217274
    44  H   -0.027985
    45  C   -0.461107
    46  H    0.097372
    47  H    0.109919
    48  H    0.098732
    49  C   -0.334921
    50  H    0.059892
    51  H    0.077371
    52  H    0.093595
    53  O   -0.290653
    54  O   -0.446916
    55  H    0.427673
    56  O   -0.734291
    57  H    0.416938
    58  C   -0.047925
    59  H   -0.014746
    60  H    0.024029
    61  C    0.004562
    62  H    0.024314
    63  H    0.002830
    64  C   -0.249268
    65  H    0.053975
    66  H    0.054118
    67  C    0.473009
    68  H   -0.052037
    69  C   -0.486742
    70  H    0.109600
    71  H    0.112146
    72  H    0.095141
    73  C   -0.390241
    74  H    0.090061
    75  H    0.077510
    76  H    0.085584
 Sum of ESP charges =   0.00000

 Normal termination of Gaussian 09 at Thu Apr 27 15:22:34 2017.
