 Gaussian 09, Revision D.01,
 Gaussian 09:  EM64L-G09RevD.01 24-Apr-2013

 ----------------------------------------------------------------------
 #P HF/6-31G* SCF(Conver=6) NoSymm Test Pop=mk IOp(6/33=2) GFInput GFPr
 int
 ----------------------------------------------------------------------

 ----------------------------------------------
 MEP - Input generated by R.E.D.-III.x MOLECULE
 ----------------------------------------------
 Symbolic Z-matrix:
 Charge =  0 Multiplicity = 1

                          Input orientation:
 ---------------------------------------------------------------------
 Center     Atomic      Atomic             Coordinates (Angstroms)
 Number     Number       Type             X           Y           Z
 ---------------------------------------------------------------------
      1          6           0        7.519899    2.214589    0.064102
      2          1           0        7.356638    2.182608    1.148336
      3          6           0        6.826713    1.006933   -0.581691
      4          1           0        7.208144    0.080381   -0.141955
      5          1           0        7.109378    0.990533   -1.647011
      6          6           0        5.315525    1.062146   -0.458119
      7          6           0        4.624556    2.358679   -0.892292
      8          6           0        5.411823    3.564850   -0.291518
      9          1           0        5.209032    3.604635    0.787825
     10          1           0        5.028067    4.499414   -0.714161
     11          6           0        6.934111    3.511621   -0.493107
     12          1           0        7.183803    3.586971   -1.561845
     13          1           0        7.406511    4.368820    0.000000
     14          6           0        4.640079    0.000000    0.000000
     15          1           0        5.181006   -0.893368    0.303981
     16          6           0        3.146928   -0.102444    0.102835
     17          1           0        2.846266   -0.208500    1.156789
     18          6           0        2.383051    1.061174   -0.550274
     19          1           0        2.328155    0.839298   -1.623937
     20          6           0        3.160222    2.391557   -0.334807
     21          1           0        3.263060    2.503550    0.756947
     22          6           0        2.343230    3.607306   -0.832079
     23          1           0        2.293473    3.597939   -1.926118
     24          1           0        2.863684    4.532084   -0.560851
     25          6           0        0.910096    3.672080   -0.269967
     26          1           0        0.954437    3.833521    0.816297
     27          1           0        0.403383    4.545358   -0.697187
     28          6           0        0.125948    2.377001   -0.552267
     29          6           0        0.964518    1.200796    0.032456
     30          1           0        1.111691    1.454030    1.095988
     31          6           0        0.000000    0.000000    0.000000
     32          1           0        0.264262   -0.760704    0.741183
     33          1           0        0.028953   -0.493731   -0.976487
     34          6           0       -1.393665    0.632021    0.275465
     35          1           0       -2.113462    0.326475   -0.490558
     36          1           0       -1.810318    0.304159    1.234325
     37          6           0       -1.189704    2.179650    0.277924
     38          1           0       -0.902407    2.443031    1.305114
     39          6           0       -0.106664    2.215873   -2.072565
     40          1           0        0.826798    2.047158   -2.615393
     41          1           0       -0.767838    1.377022   -2.303985
     42          1           0       -0.560719    3.118669   -2.490874
     43          6           0       -2.509086    2.965201    0.023726
     44          1           0       -3.209187    2.532520    0.757392
     45          6           0       -3.175415    2.777710   -1.354477
     46          1           0       -2.681031    3.365284   -2.133476
     47          1           0       -4.216692    3.116062   -1.307356
     48          1           0       -3.188031    1.733935   -1.681066
     49          6           0        4.651834    2.438571   -2.442143
     50          1           0        4.306202    3.414296   -2.797673
     51          1           0        5.662692    2.293416   -2.832007
     52          1           0        4.021502    1.664559   -2.889960
     53          8           0        2.686952   -1.288484   -0.593233
     54          8           0        3.162139   -2.452636    0.147831
     55          1           0        2.316065   -2.820910    0.451261
     56          8           0        8.941886    2.151116   -0.077023
     57          1           0        9.160435    2.168844   -1.019420
     58          6           0       -2.438412    4.476733    0.347879
     59          1           0       -1.718717    4.966948   -0.321020
     60          1           0       -3.416552    4.911380    0.096689
     61          6           0       -2.118412    4.844276    1.804893
     62          1           0       -2.816641    4.314629    2.470448
     63          1           0       -1.115161    4.493191    2.069386
     64          6           0       -2.221225    6.354164    2.069428
     65          1           0       -3.213985    6.698411    1.745908
     66          1           0       -1.494955    6.885576    1.435212
     67          6           0       -2.010627    6.786484    3.534900
     68          1           0       -2.717110    6.212846    4.154795
     69          6           0       -0.590024    6.488159    4.041255
     70          1           0        0.156967    7.018738    3.436365
     71          1           0       -0.467995    6.815737    5.079970
     72          1           0       -0.353478    5.420074    4.003609
     73          6           0       -2.340032    8.277631    3.709238
     74          1           0       -1.664591    8.899788    3.107989
     75          1           0       -2.234677    8.589097    4.754705
     76          1           0       -3.365929    8.500192    3.394185
 ---------------------------------------------------------------------

 SCF Done:  E(RHF) =  -1273.67858098     A.U. after    9 cycles

 Alpha  occ. eigenvalues --  -20.62434 -20.62313 -20.55613 -11.28602 -11.27715
 Alpha  occ. eigenvalues --  -11.24674 -11.23642 -11.23395 -11.23134 -11.23082
 Alpha  occ. eigenvalues --  -11.22784 -11.22723 -11.22688 -11.22505 -11.22320
 Alpha  occ. eigenvalues --  -11.22305 -11.22271 -11.22132 -11.21926 -11.21884
 Alpha  occ. eigenvalues --  -11.21864 -11.21746 -11.21691 -11.21653 -11.21546
 Alpha  occ. eigenvalues --  -11.21485 -11.21257 -11.21211 -11.21097 -11.21060
 Alpha  occ. eigenvalues --   -1.45729  -1.34977  -1.22360  -1.15869  -1.13917
 Alpha  occ. eigenvalues --   -1.09782  -1.08203  -1.06012  -1.05495  -1.03187
 Alpha  occ. eigenvalues --   -1.01701  -0.99937  -0.97980  -0.96308  -0.92750
 Alpha  occ. eigenvalues --   -0.92607  -0.92539  -0.91500  -0.90561  -0.85864
 Alpha  occ. eigenvalues --   -0.83765  -0.82926  -0.82539  -0.79419  -0.78391
 Alpha  occ. eigenvalues --   -0.76992  -0.76081  -0.74650  -0.72133  -0.70635
 Alpha  occ. eigenvalues --   -0.67900  -0.66616  -0.65678  -0.65181  -0.64986
 Alpha  occ. eigenvalues --   -0.64189  -0.63485  -0.62617  -0.61751  -0.61448
 Alpha  occ. eigenvalues --   -0.60739  -0.60199  -0.59598  -0.59378  -0.58875
 Alpha  occ. eigenvalues --   -0.57875  -0.57421  -0.57101  -0.56100  -0.55826
 Alpha  occ. eigenvalues --   -0.55720  -0.55271  -0.54078  -0.53996  -0.53885
 Alpha  occ. eigenvalues --   -0.53522  -0.53105  -0.52786  -0.52303  -0.51870
 Alpha  occ. eigenvalues --   -0.51142  -0.50480  -0.50012  -0.49658  -0.49270
 Alpha  occ. eigenvalues --   -0.48617  -0.48342  -0.48021  -0.47762  -0.47187
 Alpha  occ. eigenvalues --   -0.46735  -0.46205  -0.45698  -0.45383  -0.45329
 Alpha  occ. eigenvalues --   -0.45042  -0.44834  -0.44278  -0.43849  -0.43012
 Alpha  occ. eigenvalues --   -0.42316  -0.42185  -0.41898  -0.40675  -0.38999
 Alpha  occ. eigenvalues --   -0.33836
 Alpha virt. eigenvalues --    0.17006   0.20004   0.20784   0.21323   0.22197
 Alpha virt. eigenvalues --    0.22529   0.22875   0.23838   0.24330   0.24835
 Alpha virt. eigenvalues --    0.25002   0.25504   0.26234   0.27055   0.27136

 Mulliken charges:
               1
     1  C    0.193716
     2  H    0.172336
     3  C   -0.366727
     4  H    0.195164
     5  H    0.154594
     6  C    0.069061
     7  C   -0.041086
     8  C   -0.326246
     9  H    0.164480
    10  H    0.171693
    11  C   -0.339482
    12  H    0.144636
    13  H    0.182401
    14  C   -0.250254
    15  H    0.212838
    16  C    0.191100
    17  H    0.166180
    18  C   -0.190292
    19  H    0.191852
    20  C   -0.164854
    21  H    0.158436
    22  C   -0.328626
    23  H    0.167163
    24  H    0.168824
    25  C   -0.302056
    26  H    0.153578
    27  H    0.163638
    28  C   -0.024299
    29  C   -0.166519
    30  H    0.150790
    31  C   -0.301658
    32  H    0.150899
    33  H    0.175593
    34  C   -0.331272
    35  H    0.162160
    36  H    0.162701
    37  C   -0.155047
    38  H    0.159695
    39  C   -0.485897
    40  H    0.163590
    41  H    0.168526
    42  H    0.162044
    43  C   -0.141851
    44  H    0.152413
    45  C   -0.482964
    46  H    0.157274
    47  H    0.159077
    48  H    0.161038
    49  C   -0.477933
    50  H    0.163931
    51  H    0.163485
    52  H    0.174114
    53  O   -0.394919
    54  O   -0.469416
    55  H    0.460523
    56  O   -0.759723
    57  H    0.428148
    58  C   -0.301564
    59  H    0.153724
    60  H    0.153738
    61  C   -0.314023
    62  H    0.149494
    63  H    0.161272
    64  C   -0.295577
    65  H    0.152660
    66  H    0.147334
    67  C   -0.147456
    68  H    0.151757
    69  C   -0.476240
    70  H    0.151594
    71  H    0.159416
    72  H    0.160211
    73  C   -0.472619
    74  H    0.152727
    75  H    0.158677
    76  H    0.158303
 Sum of Mulliken charges =   0.00000

 Dipole moment (field-independent basis, Debye):
    X=             -2.3453    Y=              1.4141    Z=             -0.1221  Tot=              2.7413
 Quadrupole moment (field-independent basis, Debye-Ang):
   XX=           -214.9465   YY=           -188.3773   ZZ=           -188.5992
   XY=              5.9973   XZ=            -11.4042   YZ=             -7.2196

 ESP charges:
               1
     1  C    0.467961
     2  H    0.060150
     3  C   -0.414725
     4  H    0.138525
     5  H    0.142547
     6  C   -0.124515
     7  C    0.552742
     8  C   -0.133450
     9  H    0.034542
    10  H    0.070841
    11  C   -0.354942
    12  H    0.088767
    13  H    0.108731
    14  C   -0.297497
    15  H    0.193343
    16  C    0.287164
    17  H    0.016265
    18  C    0.046349
    19  H    0.049341
    20  C   -0.302907
    21  H    0.054544
    22  C   -0.116914
    23  H    0.044884
    24  H    0.039194
    25  C   -0.189375
    26  H    0.050228
    27  H    0.040510
    28  C    0.689193
    29  C   -0.062710
    30  H   -0.003491
    31  C   -0.049123
    32  H    0.043645
    33  H    0.002786
    34  C   -0.258980
    35  H    0.068777
    36  H    0.058750
    37  C   -0.001359
    38  H   -0.044770
    39  C   -0.622453
    40  H    0.120801
    41  H    0.147675
    42  H    0.116670
    43  C    0.250137
    44  H   -0.013360
    45  C   -0.498667
    46  H    0.103202
    47  H    0.114573
    48  H    0.114305
    49  C   -0.330813
    50  H    0.055868
    51  H    0.071828
    52  H    0.085280
    53  O   -0.282685
    54  O   -0.442802
    55  H    0.422051
    56  O   -0.722032
    57  H    0.415351
    58  C   -0.173565
    59  H    0.017577
    60  H    0.057648
    61  C    0.068288
    62  H    0.000974
    63  H   -0.015108
    64  C   -0.322535
    65  H    0.072998
    66  H    0.078956
    67  C    0.476587
    68  H   -0.039291
    69  C   -0.491502
    70  H    0.118627
    71  H    0.111475
    72  H    0.103778
    73  C   -0.505553
    74  H    0.117142
    75  H    0.116418
    76  H    0.107130
 Sum of ESP charges =   0.00000

 Normal termination of Gaussian 09 at Thu Apr 27 15:30:19 2017.
