 Gaussian 09, Revision D.01,
 Gaussian 09:  EM64L-G09RevD.01 24-Apr-2013

 ----------------------------------------------------------------------
 #P HF/6-31G* SCF(Conver=6) NoSymm Test Pop=mk IOp(6/33=2) GFInput GFPr
 int
 ----------------------------------------------------------------------

 ----------------------------------------------
 MEP - Input generated by R.E.D.-III.x MOLECULE
 ----------------------------------------------
 Symbolic Z-matrix:
 Charge =  0 Multiplicity = 1

                          Input orientation:
 ---------------------------------------------------------------------
 Center     Atomic      Atomic             Coordinates (Angstroms)
 Number     Number       Type             X           Y           Z
 ---------------------------------------------------------------------
      1          6           0        0.996781   -0.901597   -1.688535
      2          1           0        1.152496    0.064795   -2.183596
      3          6           0        2.207987   -1.804131   -1.961220
      4          1           0        2.349923   -1.919990   -3.040013
      5          1           0        1.973725   -2.805482   -1.564356
      6          6           0        3.481494   -1.288263   -1.317737
      7          6           0        3.418301   -0.928706    0.170089
      8          6           0        2.126955   -0.089316    0.422411
      9          1           0        2.280657    0.913489    0.000000
     10          1           0        1.983054    0.046200    1.499570
     11          6           0        0.843029   -0.675455   -0.184844
     12          1           0        0.591171   -1.631705    0.297091
     13          1           0        0.000000    0.000000    0.000000
     14          6           0        4.602785   -1.177930   -2.042123
     15          1           0        4.590725   -1.437850   -3.098246
     16          6           0        5.941033   -0.753241   -1.513433
     17          1           0        6.253838    0.189895   -1.987915
     18          6           0        6.007904   -0.622489    0.017114
     19          1           0        6.167023   -1.633634    0.413611
     20          6           0        4.662759   -0.058872    0.558728
     21          1           0        4.517604    0.907859    0.049443
     22          6           0        4.748168    0.243991    2.073175
     23          1           0        4.793644   -0.694137    2.636543
     24          1           0        3.830511    0.746862    2.396639
     25          6           0        5.950595    1.121353    2.471136
     26          1           0        5.831910    2.120816    2.029380
     27          1           0        5.942988    1.255786    3.559100
     28          6           0        7.283598    0.516719    1.992207
     29          6           0        7.159480    0.302039    0.453656
     30          1           0        6.905293    1.294528    0.044725
     31          6           0        8.600503    0.000000    0.000000
     32          1           0        8.760267    0.245525   -1.054489
     33          1           0        8.825458   -1.065689    0.108920
     34          6           0        9.479944    0.865343    0.946370
     35          1           0       10.254314    0.253156    1.419447
     36          1           0       10.006376    1.659262    0.405015
     37          6           0        8.517483    1.484322    2.008108
     38          1           0        8.136653    2.412925    1.561705
     39          6           0        7.563856   -0.809928    2.735617
     40          1           0        6.843309   -1.588164    2.471777
     41          1           0        8.558347   -1.206153    2.515715
     42          1           0        7.497694   -0.667007    3.817900
     43          6           0        9.253553    1.940042    3.301595
     44          1           0       10.077459    2.565435    2.919794
     45          6           0        9.920788    0.835197    4.145894
     46          1           0        9.195153    0.289862    4.756343
     47          1           0       10.645896    1.286073    4.832878
     48          1           0       10.461520    0.104333    3.537815
     49          6           0        3.355356   -2.242464    0.994356
     50          1           0        3.156033   -2.041258    2.051584
     51          1           0        2.559948   -2.901267    0.636387
     52          1           0        4.292559   -2.801995    0.919974
     53          8           0        6.939651   -1.750257   -1.847194
     54          8           0        7.121135   -1.731888   -3.295300
     55          1           0        8.037032   -1.413058   -3.350204
     56          8           0       -0.195633   -1.414005   -2.289838
     57          1           0       -0.391410   -2.278182   -1.901181
     58          6           0        8.424544    2.856358    4.234984
     59          1           0        7.545450    2.312191    4.605562
     60          1           0        9.042221    3.055324    5.120424
     61          6           0        7.979590    4.199506    3.635987
     62          1           0        8.862219    4.739508    3.266614
     63          1           0        7.348750    4.023858    2.756826
     64          6           0        7.182720    5.094412    4.604460
     65          1           0        6.282116    4.548751    4.921476
     66          1           0        6.822961    5.974059    4.050283
     67          6           0        7.918475    5.593309    5.866644
     68          1           0        8.258202    4.718253    6.438794
     69          6           0        9.153055    6.444047    5.528815
     70          1           0        8.869899    7.322123    4.933732
     71          1           0        9.640653    6.805231    6.441417
     72          1           0        9.899254    5.881855    4.958033
     73          6           0        6.951139    6.380660    6.765270
     74          1           0        6.579772    7.276100    6.250349
     75          1           0        7.442806    6.708615    7.688229
     76          1           0        6.082304    5.773919    7.045378
 ---------------------------------------------------------------------

 SCF Done:  E(RHF) =  -1273.67674526     A.U. after    9 cycles

 Alpha  occ. eigenvalues --  -20.62436 -20.62315 -20.55617 -11.28605 -11.27719
 Alpha  occ. eigenvalues --  -11.24678 -11.23644 -11.23398 -11.23133 -11.23084
 Alpha  occ. eigenvalues --  -11.22812 -11.22727 -11.22583 -11.22510 -11.22322
 Alpha  occ. eigenvalues --  -11.22295 -11.22272 -11.22133 -11.21927 -11.21888
 Alpha  occ. eigenvalues --  -11.21867 -11.21784 -11.21728 -11.21621 -11.21547
 Alpha  occ. eigenvalues --  -11.21486 -11.21194 -11.21188 -11.21100 -11.21080
 Alpha  occ. eigenvalues --   -1.45731  -1.34981  -1.22362  -1.15870  -1.13919
 Alpha  occ. eigenvalues --   -1.09799  -1.08158  -1.05916  -1.05497  -1.03188
 Alpha  occ. eigenvalues --   -1.01633  -0.99856  -0.97983  -0.96315  -0.92766
 Alpha  occ. eigenvalues --   -0.92619  -0.92514  -0.91542  -0.90617  -0.85867
 Alpha  occ. eigenvalues --   -0.83768  -0.82936  -0.82784  -0.79891  -0.78395
 Alpha  occ. eigenvalues --   -0.77074  -0.75191  -0.74597  -0.72142  -0.70649
 Alpha  occ. eigenvalues --   -0.67901  -0.66619  -0.65661  -0.65178  -0.64994
 Alpha  occ. eigenvalues --   -0.63498  -0.63323  -0.62937  -0.62177  -0.61572
 Alpha  occ. eigenvalues --   -0.60876  -0.60043  -0.59940  -0.59327  -0.58394
 Alpha  occ. eigenvalues --   -0.57998  -0.57633  -0.56719  -0.55957  -0.55781
 Alpha  occ. eigenvalues --   -0.55498  -0.54974  -0.54272  -0.53949  -0.53854
 Alpha  occ. eigenvalues --   -0.53638  -0.53246  -0.53083  -0.52801  -0.52205
 Alpha  occ. eigenvalues --   -0.51316  -0.50657  -0.50159  -0.49493  -0.49105
 Alpha  occ. eigenvalues --   -0.48618  -0.48407  -0.48005  -0.47624  -0.47285
 Alpha  occ. eigenvalues --   -0.46744  -0.46207  -0.45423  -0.45253  -0.45052
 Alpha  occ. eigenvalues --   -0.44825  -0.44686  -0.44443  -0.43862  -0.42841
 Alpha  occ. eigenvalues --   -0.42410  -0.42257  -0.41910  -0.40666  -0.39000
 Alpha  occ. eigenvalues --   -0.33838
 Alpha virt. eigenvalues --    0.17003   0.19950   0.20758   0.21382   0.22267
 Alpha virt. eigenvalues --    0.22435   0.22880   0.23790   0.24367   0.24881
 Alpha virt. eigenvalues --    0.24973   0.25563   0.26227   0.27022   0.27218

 Mulliken charges:
               1
     1  C    0.193723
     2  H    0.172319
     3  C   -0.366738
     4  H    0.195172
     5  H    0.154591
     6  C    0.069065
     7  C   -0.041043
     8  C   -0.326251
     9  H    0.164407
    10  H    0.171713
    11  C   -0.339476
    12  H    0.144680
    13  H    0.182390
    14  C   -0.250278
    15  H    0.212863
    16  C    0.191173
    17  H    0.166180
    18  C   -0.190407
    19  H    0.191831
    20  C   -0.164846
    21  H    0.158437
    22  C   -0.328737
    23  H    0.167113
    24  H    0.168847
    25  C   -0.301982
    26  H    0.153907
    27  H    0.163417
    28  C   -0.024281
    29  C   -0.166482
    30  H    0.150860
    31  C   -0.301649
    32  H    0.150964
    33  H    0.175522
    34  C   -0.331109
    35  H    0.162044
    36  H    0.162736
    37  C   -0.155234
    38  H    0.159993
    39  C   -0.485796
    40  H    0.163559
    41  H    0.168486
    42  H    0.161938
    43  C   -0.140526
    44  H    0.151963
    45  C   -0.482964
    46  H    0.157221
    47  H    0.158728
    48  H    0.161058
    49  C   -0.478000
    50  H    0.163896
    51  H    0.163524
    52  H    0.174105
    53  O   -0.394914
    54  O   -0.469428
    55  H    0.460533
    56  O   -0.759717
    57  H    0.428152
    58  C   -0.306804
    59  H    0.152685
    60  H    0.158479
    61  C   -0.317165
    62  H    0.154229
    63  H    0.160233
    64  C   -0.297344
    65  H    0.151206
    66  H    0.151132
    67  C   -0.152913
    68  H    0.156457
    69  C   -0.476460
    70  H    0.152357
    71  H    0.158858
    72  H    0.160901
    73  C   -0.471778
    74  H    0.152527
    75  H    0.158648
    76  H    0.157501
 Sum of Mulliken charges =   0.00000

 Dipole moment (field-independent basis, Debye):
    X=              1.2424    Y=              1.0128    Z=              2.1734  Tot=              2.7006
 Quadrupole moment (field-independent basis, Debye-Ang):
   XX=           -181.5886   YY=           -192.9469   ZZ=           -196.4848
   XY=             12.5148   XZ=             -0.6299   YZ=             -5.7794

 ESP charges:
               1
     1  C    0.497825
     2  H    0.047991
     3  C   -0.454759
     4  H    0.144356
     5  H    0.144876
     6  C   -0.020824
     7  C    0.409220
     8  C   -0.116294
     9  H    0.039349
    10  H    0.074097
    11  C   -0.326236
    12  H    0.082827
    13  H    0.095603
    14  C   -0.361005
    15  H    0.197419
    16  C    0.389537
    17  H   -0.021235
    18  C    0.163404
    19  H    0.005876
    20  C   -0.375519
    21  H    0.052364
    22  C    0.044383
    23  H    0.015164
    24  H    0.014503
    25  C   -0.300358
    26  H    0.065733
    27  H    0.054661
    28  C    0.720907
    29  C   -0.045243
    30  H   -0.010709
    31  C   -0.120249
    32  H    0.051043
    33  H    0.011875
    34  C   -0.155398
    35  H    0.050005
    36  H    0.038640
    37  C   -0.061006
    38  H   -0.027732
    39  C   -0.683884
    40  H    0.136192
    41  H    0.162166
    42  H    0.139826
    43  C    0.180710
    44  H    0.015901
    45  C   -0.481701
    46  H    0.103793
    47  H    0.113776
    48  H    0.116436
    49  C   -0.321617
    50  H    0.060994
    51  H    0.076403
    52  H    0.088785
    53  O   -0.310026
    54  O   -0.447643
    55  H    0.427773
    56  O   -0.728666
    57  H    0.415729
    58  C   -0.222867
    59  H    0.042735
    60  H    0.083411
    61  C    0.045027
    62  H    0.012532
    63  H    0.004804
    64  C   -0.310400
    65  H    0.065877
    66  H    0.069500
    67  C    0.543725
    68  H   -0.070082
    69  C   -0.468704
    70  H    0.106223
    71  H    0.097120
    72  H    0.102580
    73  C   -0.517064
    74  H    0.114218
    75  H    0.117247
    76  H    0.104083
 Sum of ESP charges =   0.00000

 Normal termination of Gaussian 09 at Thu Apr 27 15:45:50 2017.
