 Gaussian 09, Revision D.01,
 Gaussian 09:  EM64L-G09RevD.01 24-Apr-2013

 ----------------------------------------------------------------------
 #P HF/6-31G* SCF(Conver=6) NoSymm Test Pop=mk IOp(6/33=2) GFInput GFPr
 int
 ----------------------------------------------------------------------

 ----------------------------------------------
 MEP - Input generated by R.E.D.-III.x MOLECULE
 ----------------------------------------------
 Symbolic Z-matrix:
 Charge =  0 Multiplicity = 1

                          Input orientation:
 ---------------------------------------------------------------------
 Center     Atomic      Atomic             Coordinates (Angstroms)
 Number     Number       Type             X           Y           Z
 ---------------------------------------------------------------------
      1          6           0        1.759654   -1.247243   -0.074724
      2          1           0        1.873484   -1.118391   -1.158084
      3          6           0        3.151077   -1.312422    0.569952
      4          1           0        3.729665   -2.127165    0.124065
      5          1           0        3.014049   -1.567938    1.633447
      6          6           0        3.912991   -0.005362    0.455749
      7          6           0        3.187276    1.269481    0.897339
      8          6           0        1.746533    1.253491    0.297871
      9          1           0        1.820281    1.453127   -0.780281
     10          1           0        1.162758    2.074997    0.726465
     11          6           0        0.977548   -0.062530    0.491524
     12          1           0        0.781685   -0.240391    1.559340
     13          1           0        0.000000    0.000000    0.000000
     14          6           0        5.172568    0.000000    0.000000
     15          1           0        5.638589   -0.933010   -0.308952
     16          6           0        6.058145    1.207348   -0.093835
     17          1           0        6.312778    1.408790   -1.146003
     18          6           0        5.481296    2.473050    0.561359
     19          1           0        5.698326    2.401534    1.635306
     20          6           0        3.942519    2.526934    0.345464
     21          1           0        3.793230    2.504734   -0.746394
     22          6           0        3.354750    3.865044    0.849321
     23          1           0        3.384834    3.892659    1.943937
     24          1           0        2.296022    3.925387    0.575086
     25          6           0        4.069622    5.115727    0.302257
     26          1           0        3.913506    5.179123   -0.784388
     27          1           0        3.597929    6.003115    0.736152
     28          6           0        5.584968    5.081625    0.582445
     29          6           0        6.120148    3.749063   -0.017555
     30          1           0        5.817590    3.773201   -1.078545
     31          6           0        7.649070    3.912931    0.000000
     32          1           0        8.140315    3.285124   -0.749994
     33          1           0        8.060638    3.617586    0.970302
     34          6           0        7.863571    5.427607   -0.269465
     35          1           0        8.525254    5.863430    0.488317
     36          1           0        8.348122    5.601501   -1.235640
     37          6           0        6.457519    6.108953   -0.219468
     38          1           0        6.045177    6.112675   -1.239249
     39          6           0        5.863151    5.201887    2.097985
     40          1           0        5.426338    4.378307    2.668345
     41          1           0        6.934622    5.213184    2.318838
     42          1           0        5.437900    6.129685    2.495000
     43          6           0        6.529609    7.581717    0.255354
     44          1           0        6.945906    7.575760    1.273273
     45          6           0        5.158871    8.280777    0.326874
     46          1           0        4.600606    8.183826   -0.610992
     47          1           0        5.285663    9.351077    0.528332
     48          1           0        4.532761    7.874195    1.125027
     49          6           0        3.106866    1.280617    2.447374
     50          1           0        2.467099    2.092072    2.808164
     51          1           0        2.690081    0.346431    2.832730
     52          1           0        4.098474    1.397448    2.894579
     53          8           0        7.303529    0.958738    0.606250
     54          8           0        8.036473   -0.061810   -0.136371
     55          1           0        8.800577    0.458014   -0.435487
     56          8           0        1.052659   -2.483607    0.057692
     57          1           0        0.921448   -2.665797    0.998849
     58          6           0        7.521182    8.426800   -0.590731
     59          1           0        7.590866    9.414149   -0.115751
     60          1           0        8.525719    7.990718   -0.518160
     61          6           0        7.171098    8.604655   -2.077727
     62          1           0        7.063406    7.618941   -2.547955
     63          1           0        6.193530    9.091534   -2.178799
     64          6           0        8.227086    9.388455   -2.880628
     65          1           0        7.949260    9.361449   -3.944841
     66          1           0        9.186891    8.856912   -2.805400
     67          6           0        8.455161   10.862707   -2.483467
     68          1           0        8.746941   10.894505   -1.424056
     69          6           0        9.616309   11.456344   -3.297336
     70          1           0        9.382563   11.455994   -4.369838
     71          1           0        9.820528   12.492035   -3.002655
     72          1           0       10.538032   10.879835   -3.157780
     73          6           0        7.188815   11.717616   -2.649982
     74          1           0        6.842496   11.701219   -3.691685
     75          1           0        7.384018   12.762217   -2.382001
     76          1           0        6.365684   11.364965   -2.020192
 ---------------------------------------------------------------------

 SCF Done:  E(RHF) =  -1273.68268640     A.U. after    9 cycles

 Alpha  occ. eigenvalues --  -20.62435 -20.62315 -20.55610 -11.28598 -11.27712
 Alpha  occ. eigenvalues --  -11.24660 -11.23638 -11.23352 -11.23105 -11.23073
 Alpha  occ. eigenvalues --  -11.22712 -11.22619 -11.22522 -11.22503 -11.22313
 Alpha  occ. eigenvalues --  -11.22255 -11.22246 -11.22093 -11.21877 -11.21860
 Alpha  occ. eigenvalues --  -11.21825 -11.21705 -11.21643 -11.21610 -11.21571
 Alpha  occ. eigenvalues --  -11.21470 -11.21243 -11.21181 -11.21146 -11.21134
 Alpha  occ. eigenvalues --   -1.45729  -1.34974  -1.22359  -1.15885  -1.13957
 Alpha  occ. eigenvalues --   -1.09844  -1.08148  -1.05887  -1.05482  -1.03194
 Alpha  occ. eigenvalues --   -1.01578  -0.99657  -0.98007  -0.96267  -0.93164
 Alpha  occ. eigenvalues --   -0.92507  -0.92142  -0.91208  -0.90839  -0.85859
 Alpha  occ. eigenvalues --   -0.84243  -0.83075  -0.82825  -0.79582  -0.78301
 Alpha  occ. eigenvalues --   -0.77051  -0.75702  -0.73617  -0.72004  -0.70755
 Alpha  occ. eigenvalues --   -0.67863  -0.66615  -0.66163  -0.65174  -0.64729
 Alpha  occ. eigenvalues --   -0.63813  -0.63542  -0.62556  -0.62299  -0.61545
 Alpha  occ. eigenvalues --   -0.60864  -0.60532  -0.59699  -0.59095  -0.58090
 Alpha  occ. eigenvalues --   -0.57766  -0.57457  -0.56668  -0.56289  -0.55807
 Alpha  occ. eigenvalues --   -0.55643  -0.55005  -0.54174  -0.54070  -0.53874
 Alpha  occ. eigenvalues --   -0.53717  -0.53430  -0.53057  -0.52738  -0.52224
 Alpha  occ. eigenvalues --   -0.50884  -0.50784  -0.50022  -0.49888  -0.49397
 Alpha  occ. eigenvalues --   -0.48504  -0.48198  -0.48013  -0.47421  -0.47272
 Alpha  occ. eigenvalues --   -0.46536  -0.46150  -0.45425  -0.45156  -0.44979
 Alpha  occ. eigenvalues --   -0.44882  -0.44519  -0.44137  -0.43823  -0.43421
 Alpha  occ. eigenvalues --   -0.42476  -0.42247  -0.41962  -0.40717  -0.39063
 Alpha  occ. eigenvalues --   -0.33832
 Alpha virt. eigenvalues --    0.17010   0.20276   0.20861   0.21532   0.21959
 Alpha virt. eigenvalues --    0.22591   0.22969   0.23701   0.24415   0.25021
 Alpha virt. eigenvalues --    0.25337   0.25802   0.26130   0.26914   0.27002

 Mulliken charges:
               1
     1  C    0.193731
     2  H    0.172292
     3  C   -0.366694
     4  H    0.195122
     5  H    0.154582
     6  C    0.069002
     7  C   -0.040950
     8  C   -0.326253
     9  H    0.164433
    10  H    0.171792
    11  C   -0.339501
    12  H    0.144615
    13  H    0.182367
    14  C   -0.249998
    15  H    0.212676
    16  C    0.189892
    17  H    0.166280
    18  C   -0.189185
    19  H    0.191596
    20  C   -0.164925
    21  H    0.158616
    22  C   -0.328850
    23  H    0.165671
    24  H    0.168878
    25  C   -0.298174
    26  H    0.152367
    27  H    0.165752
    28  C   -0.029582
    29  C   -0.163784
    30  H    0.150979
    31  C   -0.302464
    32  H    0.150863
    33  H    0.175651
    34  C   -0.338512
    35  H    0.162011
    36  H    0.165489
    37  C   -0.141292
    38  H    0.156880
    39  C   -0.489145
    40  H    0.164591
    41  H    0.167625
    42  H    0.163150
    43  C   -0.147413
    44  H    0.157907
    45  C   -0.487385
    46  H    0.157775
    47  H    0.158072
    48  H    0.162109
    49  C   -0.478063
    50  H    0.163829
    51  H    0.163479
    52  H    0.174221
    53  O   -0.394814
    54  O   -0.469406
    55  H    0.460458
    56  O   -0.759752
    57  H    0.428144
    58  C   -0.314530
    59  H    0.157940
    60  H    0.160082
    61  C   -0.319139
    62  H    0.158408
    63  H    0.160334
    64  C   -0.297622
    65  H    0.150837
    66  H    0.151035
    67  C   -0.152412
    68  H    0.156579
    69  C   -0.471802
    70  H    0.152339
    71  H    0.158383
    72  H    0.157713
    73  C   -0.476814
    74  H    0.152183
    75  H    0.158648
    76  H    0.161085
 Sum of Mulliken charges =   0.00000

 Dipole moment (field-independent basis, Debye):
    X=              0.0282    Y=              2.6589    Z=              0.3420  Tot=              2.6809
 Quadrupole moment (field-independent basis, Debye-Ang):
   XX=           -189.8165   YY=           -192.7928   ZZ=           -188.8387
   XY=             10.4312   XZ=             -8.7139   YZ=             -2.6552

 ESP charges:
               1
     1  C    0.488941
     2  H    0.052288
     3  C   -0.443484
     4  H    0.140852
     5  H    0.146876
     6  C   -0.048055
     7  C    0.401350
     8  C   -0.146140
     9  H    0.041534
    10  H    0.078501
    11  C   -0.314202
    12  H    0.083413
    13  H    0.094509
    14  C   -0.330034
    15  H    0.190310
    16  C    0.375755
    17  H   -0.007332
    18  C    0.011455
    19  H    0.054822
    20  C   -0.271764
    21  H    0.048551
    22  C    0.078767
    23  H   -0.002919
    24  H   -0.001720
    25  C   -0.229678
    26  H    0.017825
    27  H    0.035017
    28  C    0.588826
    29  C   -0.057442
    30  H    0.018121
    31  C   -0.280213
    32  H    0.088624
    33  H    0.061134
    34  C   -0.084794
    35  H    0.028094
    36  H    0.036973
    37  C    0.177350
    38  H   -0.101470
    39  C   -0.612271
    40  H    0.133081
    41  H    0.129569
    42  H    0.118734
    43  C    0.140148
    44  H   -0.025458
    45  C   -0.369532
    46  H    0.067743
    47  H    0.092529
    48  H    0.077006
    49  C   -0.295276
    50  H    0.053388
    51  H    0.069687
    52  H    0.078690
    53  O   -0.286990
    54  O   -0.447084
    55  H    0.423448
    56  O   -0.726055
    57  H    0.413783
    58  C   -0.170157
    59  H    0.062473
    60  H    0.013867
    61  C    0.032513
    62  H    0.037876
    63  H    0.026247
    64  C   -0.375022
    65  H    0.076244
    66  H    0.088987
    67  C    0.581151
    68  H   -0.067107
    69  C   -0.526565
    70  H    0.119788
    71  H    0.117403
    72  H    0.104575
    73  C   -0.532069
    74  H    0.122744
    75  H    0.110196
    76  H    0.121075
 Sum of ESP charges =   0.00000

 Normal termination of Gaussian 09 at Thu Apr 27 16:17:07 2017.
