 Gaussian 09, Revision D.01,
 Gaussian 09:  EM64L-G09RevD.01 24-Apr-2013

 ----------------------------------------------------------------------
 #P HF/6-31G* SCF(Conver=6) NoSymm Test Pop=mk IOp(6/33=2) GFInput GFPr
 int
 ----------------------------------------------------------------------

 ----------------------------------------------
 MEP - Input generated by R.E.D.-III.x MOLECULE
 ----------------------------------------------
 Symbolic Z-matrix:
 Charge =  0 Multiplicity = 1

                          Input orientation:
 ---------------------------------------------------------------------
 Center     Atomic      Atomic             Coordinates (Angstroms)
 Number     Number       Type             X           Y           Z
 ---------------------------------------------------------------------
      1          6           0        0.998642   -0.891289   -1.692395
      2          1           0        1.153339    0.077010   -2.183938
      3          6           0        2.211521   -1.791454   -1.967566
      4          1           0        2.352434   -1.904039   -3.047194
      5          1           0        1.977272   -2.793539   -1.572853
      6          6           0        3.484867   -1.280223   -1.321155
      7          6           0        3.423770   -0.914867    0.166105
      8          6           0        2.127791   -0.083029    0.419060
      9          1           0        2.276278    0.921928    0.000000
     10          1           0        1.985445    0.048847    1.496645
     11          6           0        0.845162   -0.671821   -0.188182
     12          1           0        0.597543   -1.631068    0.290346
     13          1           0        0.000000    0.000000    0.000000
     14          6           0        4.609926   -1.172828   -2.040793
     15          1           0        4.594277   -1.419710   -3.102911
     16          6           0        5.946855   -0.744584   -1.511238
     17          1           0        6.240824    0.205549   -1.986328
     18          6           0        6.010446   -0.602118    0.017144
     19          1           0        6.167042   -1.608309    0.420937
     20          6           0        4.664615   -0.033615    0.546875
     21          1           0        4.514548    0.925912    0.024503
     22          6           0        4.744628    0.291777    2.055731
     23          1           0        4.778336   -0.638291    2.633509
     24          1           0        3.831391    0.809373    2.369208
     25          6           0        5.954214    1.162077    2.449057
     26          1           0        5.851979    2.157046    1.991967
     27          1           0        5.931324    1.315043    3.532422
     28          6           0        7.286920    0.540933    1.985213
     29          6           0        7.164334    0.320078    0.449081
     30          1           0        6.921638    1.315305    0.036220
     31          6           0        8.598965    0.000000    0.000000
     32          1           0        8.762396    0.209012   -1.060308
     33          1           0        8.819099   -1.063492    0.138062
     34          6           0        9.477633    0.886706    0.922634
     35          1           0       10.280486    0.295911    1.379781
     36          1           0        9.967921    1.684405    0.356312
     37          6           0        8.541819    1.481579    2.028881
     38          1           0        8.193137    2.468768    1.685002
     39          6           0        7.574088   -0.773385    2.747044
     40          1           0        6.811173   -1.534947    2.567005
     41          1           0        8.535741   -1.209298    2.461349
     42          1           0        7.604129   -0.594995    3.827019
     43          6           0        9.282903    1.714944    3.372033
     44          1           0        9.690454    0.746744    3.695121
     45          6           0        8.369890    2.243372    4.491536
     46          1           0        7.874613    3.174783    4.188765
     47          1           0        8.939760    2.454131    5.401570
     48          1           0        7.593078    1.525596    4.763609
     49          6           0        3.372250   -2.227562    0.992456
     50          1           0        3.183390   -2.023802    2.050967
     51          1           0        2.573416   -2.888283    0.644617
     52          1           0        4.310513   -2.783547    0.908959
     53          8           0        6.993344   -1.599931   -2.037205
     54          8           0        6.824977   -2.945605   -1.501074
     55          1           0        6.428270   -3.399684   -2.262465
     56          8           0       -0.190726   -1.404669   -2.298039
     57          1           0       -0.406926   -2.253149   -1.886290
     58          6           0       10.474652    2.681435    3.148477
     59          1           0       11.087369    2.310125    2.318924
     60          1           0       10.070062    3.649767    2.817449
     61          6           0       11.413183    2.928351    4.346820
     62          1           0       12.155076    3.672162    4.029738
     63          1           0       10.860356    3.393389    5.171440
     64          6           0       12.137813    1.667095    4.845339
     65          1           0       12.616527    1.174985    3.985847
     66          1           0       11.399084    0.951294    5.230047
     67          6           0       13.209738    1.879784    5.940816
     68          1           0       13.598726    0.878754    6.179390
     69          6           0       14.401920    2.719980    5.453317
     70          1           0       14.112772    3.758102    5.253273
     71          1           0       15.195859    2.743121    6.208582
     72          1           0       14.829844    2.308125    4.531748
     73          6           0       12.622149    2.456794    7.239580
     74          1           0       12.265934    3.484019    7.100247
     75          1           0       13.377289    2.477866    8.033660
     76          1           0       11.778210    1.855380    7.597728
 ---------------------------------------------------------------------

 SCF Done:  E(RHF) =  -1273.68182675     A.U. after    9 cycles

 Alpha  occ. eigenvalues --  -20.62430 -20.62296 -20.56043 -11.28756 -11.28176
 Alpha  occ. eigenvalues --  -11.24903 -11.24404 -11.23207 -11.23144 -11.22941
 Alpha  occ. eigenvalues --  -11.22661 -11.22645 -11.22625 -11.22426 -11.22314
 Alpha  occ. eigenvalues --  -11.22100 -11.22027 -11.21912 -11.21821 -11.21619
 Alpha  occ. eigenvalues --  -11.21495 -11.21357 -11.21295 -11.21228 -11.20955
 Alpha  occ. eigenvalues --  -11.20903 -11.20861 -11.20758 -11.20734 -11.20350
 Alpha  occ. eigenvalues --   -1.45685  -1.35419  -1.22121  -1.15843  -1.13854
 Alpha  occ. eigenvalues --   -1.09552  -1.07989  -1.05880  -1.05637  -1.03038
 Alpha  occ. eigenvalues --   -1.01636  -0.99229  -0.97851  -0.96269  -0.92808
 Alpha  occ. eigenvalues --   -0.92292  -0.92141  -0.91051  -0.90437  -0.86025
 Alpha  occ. eigenvalues --   -0.84571  -0.82916  -0.82754  -0.78757  -0.78354
 Alpha  occ. eigenvalues --   -0.76900  -0.75131  -0.73091  -0.72053  -0.69399
 Alpha  occ. eigenvalues --   -0.69332  -0.67123  -0.65620  -0.65320  -0.64528
 Alpha  occ. eigenvalues --   -0.63932  -0.63223  -0.62822  -0.62538  -0.61165
 Alpha  occ. eigenvalues --   -0.60694  -0.60116  -0.59417  -0.59011  -0.58519
 Alpha  occ. eigenvalues --   -0.57866  -0.57552  -0.56422  -0.56009  -0.55684
 Alpha  occ. eigenvalues --   -0.55197  -0.54820  -0.54212  -0.54048  -0.53692
 Alpha  occ. eigenvalues --   -0.53228  -0.52983  -0.52675  -0.52103  -0.51858
 Alpha  occ. eigenvalues --   -0.51506  -0.50840  -0.50143  -0.49819  -0.48974
 Alpha  occ. eigenvalues --   -0.48301  -0.47964  -0.47442  -0.47051  -0.46961
 Alpha  occ. eigenvalues --   -0.46387  -0.46301  -0.45989  -0.45251  -0.44921
 Alpha  occ. eigenvalues --   -0.44769  -0.44198  -0.43475  -0.43258  -0.42771
 Alpha  occ. eigenvalues --   -0.42641  -0.42440  -0.41556  -0.40420  -0.38615
 Alpha  occ. eigenvalues --   -0.34412
 Alpha virt. eigenvalues --    0.16150   0.20711   0.21154   0.21541   0.22109
 Alpha virt. eigenvalues --    0.22946   0.23067   0.24372   0.25227   0.25361
 Alpha virt. eigenvalues --    0.25611   0.26207   0.26778   0.26905   0.27013

 Mulliken charges:
               1
     1  C    0.193919
     2  H    0.173809
     3  C   -0.368262
     4  H    0.191909
     5  H    0.155407
     6  C    0.083425
     7  C   -0.042168
     8  C   -0.327356
     9  H    0.165831
    10  H    0.174434
    11  C   -0.341359
    12  H    0.144961
    13  H    0.183969
    14  C   -0.279283
    15  H    0.185715
    16  C    0.190487
    17  H    0.186705
    18  C   -0.182571
    19  H    0.208723
    20  C   -0.168218
    21  H    0.156559
    22  C   -0.327811
    23  H    0.164936
    24  H    0.166845
    25  C   -0.297723
    26  H    0.151597
    27  H    0.164849
    28  C   -0.030324
    29  C   -0.168935
    30  H    0.147118
    31  C   -0.306122
    32  H    0.173152
    33  H    0.177608
    34  C   -0.339368
    35  H    0.159832
    36  H    0.165675
    37  C   -0.134548
    38  H    0.150460
    39  C   -0.488173
    40  H    0.163134
    41  H    0.170106
    42  H    0.160651
    43  C   -0.155059
    44  H    0.158990
    45  C   -0.485192
    46  H    0.152119
    47  H    0.163253
    48  H    0.161103
    49  C   -0.480736
    50  H    0.165761
    51  H    0.159890
    52  H    0.180440
    53  O   -0.393249
    54  O   -0.470626
    55  H    0.458924
    56  O   -0.759112
    57  H    0.428489
    58  C   -0.308448
    59  H    0.165815
    60  H    0.149486
    61  C   -0.318552
    62  H    0.159754
    63  H    0.158178
    64  C   -0.305220
    65  H    0.150873
    66  H    0.155517
    67  C   -0.145694
    68  H    0.155196
    69  C   -0.476376
    70  H    0.155817
    71  H    0.158044
    72  H    0.157194
    73  C   -0.476993
    74  H    0.156402
    75  H    0.158374
    76  H    0.156044
 Sum of Mulliken charges =   0.00000

 Dipole moment (field-independent basis, Debye):
    X=             -1.1573    Y=             -0.6033    Z=              1.1320  Tot=              1.7276
 Quadrupole moment (field-independent basis, Debye-Ang):
   XX=           -216.0305   YY=           -184.7706   ZZ=           -193.8592
   XY=              4.6667   XZ=             -0.9737   YZ=              1.1119

 ESP charges:
               1
     1  C    0.543515
     2  H    0.037327
     3  C   -0.441237
     4  H    0.128539
     5  H    0.128635
     6  C    0.171503
     7  C    0.163733
     8  C   -0.015771
     9  H    0.012911
    10  H    0.064918
    11  C   -0.360775
    12  H    0.089378
    13  H    0.094525
    14  C   -0.558638
    15  H    0.208329
    16  C    0.509516
    17  H    0.033932
    18  C   -0.364193
    19  H    0.151091
    20  C   -0.127732
    21  H    0.049629
    22  C    0.032285
    23  H    0.020085
    24  H    0.002254
    25  C   -0.221680
    26  H    0.025546
    27  H    0.051105
    28  C    0.473691
    29  C    0.393208
    30  H   -0.079071
    31  C   -0.283674
    32  H    0.065795
    33  H    0.093996
    34  C   -0.048517
    35  H    0.021492
    36  H    0.038993
    37  C   -0.350202
    38  H    0.045646
    39  C   -0.527892
    40  H    0.110417
    41  H    0.112089
    42  H    0.106483
    43  C    0.524409
    44  H   -0.050281
    45  C   -0.573230
    46  H    0.111673
    47  H    0.141988
    48  H    0.115321
    49  C   -0.367108
    50  H    0.087375
    51  H    0.096313
    52  H    0.107657
    53  O   -0.341845
    54  O   -0.467911
    55  H    0.460174
    56  O   -0.741217
    57  H    0.418421
    58  C   -0.188401
    59  H    0.040264
    60  H    0.022764
    61  C    0.078676
    62  H    0.010357
    63  H   -0.008495
    64  C   -0.290739
    65  H    0.054276
    66  H    0.041697
    67  C    0.481367
    68  H   -0.059502
    69  C   -0.453787
    70  H    0.104586
    71  H    0.095822
    72  H    0.098914
    73  C   -0.435106
    74  H    0.098359
    75  H    0.095500
    76  H    0.090525
 Sum of ESP charges =   0.00000

 Normal termination of Gaussian 09 at Thu Apr 27 16:37:15 2017.
