 Gaussian 09, Revision D.01,
 Gaussian 09:  EM64L-G09RevD.01 24-Apr-2013

 ------------------------
 #P MP2/cc-pVQZ SP Nosymm
 ------------------------

 ------
 PEscan
 ------
 Symbolic Z-matrix:
 Charge =  0 Multiplicity = 1

                          Input orientation:
 ---------------------------------------------------------------------
 Center     Atomic      Atomic             Coordinates (Angstroms)
 Number     Number       Type             X           Y           Z
 ---------------------------------------------------------------------
      1          6           0       -0.545890   -1.090450   -3.468110
      2          6           0        0.012260   -0.161280   -2.399560
      3          8           0        0.992710   -0.804090   -1.586650
      4          8           0        0.253940   -1.397120   -0.473700
      5          1           0        0.520530   -2.323900   -0.596130
      6          1           0       -1.073840   -1.938050   -3.001050
      7          1           0        0.561410    0.676410   -2.864800
      8          1           0       -0.776670    0.257670   -1.753910
      9          1           0       -1.259820   -0.556010   -4.117130
     10          1           0        0.270510   -1.485310   -4.093380
 ---------------------------------------------------------------------

 SCF Done:  E(RHF) =  -228.941323232     A.U. after   13 cycles
 E2 =    -0.9024090078D+00 EUMP2 =    -0.22984373223955D+03

 Alpha  occ. eigenvalues --  -20.61925 -20.61765 -11.28321 -11.22492  -1.46456
 Alpha  occ. eigenvalues --   -1.22444  -1.00602  -0.83887  -0.71692  -0.66651
 Alpha  occ. eigenvalues --   -0.63877  -0.58795  -0.55374  -0.53992  -0.50094
 Alpha  occ. eigenvalues --   -0.48822  -0.44195
 Alpha virt. eigenvalues --    0.11336   0.13643   0.15421   0.16933   0.18675
 Alpha virt. eigenvalues --    0.20338   0.22568   0.26501   0.28097   0.29255
 Alpha virt. eigenvalues --    0.30703   0.35402   0.39536   0.44687   0.45277

 Mulliken charges:
               1
     1  C   -0.221060
     2  C    0.142079
     3  O   -0.243470
     4  O   -0.305171
     5  H    0.282378
     6  H    0.066683
     7  H    0.075743
     8  H    0.055850
     9  H    0.068578
    10  H    0.078390
 Sum of Mulliken charges =   0.00000

 Dipole moment (field-independent basis, Debye):
    X=             -0.8394    Y=             -0.7586    Z=             -1.3545  Tot=              1.7648
 Quadrupole moment (field-independent basis, Debye-Ang):
   XX=            -26.6036   YY=            -19.6640   ZZ=            -21.0020
   XY=             -0.5459   XZ=              1.3607   YZ=              0.0331

 Normal termination of Gaussian 09 at Thu Dec 21 17:16:09 2017.
