 Gaussian 09, Revision D.01,
 Gaussian 09:  EM64L-G09RevD.01 24-Apr-2013

 ----------------------------
 #P CCSD(T)/cc-pVDZ SP Nosymm
 ----------------------------

 ------
 PEscan
 ------
 Symbolic Z-matrix:
 Charge =  0 Multiplicity = 1

                          Input orientation:
 ---------------------------------------------------------------------
 Center     Atomic      Atomic             Coordinates (Angstroms)
 Number     Number       Type             X           Y           Z
 ---------------------------------------------------------------------
      1          6           0       -0.769800   -1.069700   -3.363570
      2          6           0       -0.096840   -0.186470   -2.324090
      3          8           0        0.018850   -0.801340   -1.045020
      4          8           0        0.819860   -2.005640   -1.242550
      5          1           0        1.598700   -1.743200   -0.723360
      6          1           0       -1.763140   -1.388370   -3.008970
      7          1           0        0.901330    0.140230   -2.677120
      8          1           0       -0.699860    0.711560   -2.104870
      9          1           0       -0.892030   -0.514030   -4.308220
     10          1           0       -0.161910   -1.965140   -3.556640
 ---------------------------------------------------------------------

 SCF Done:  E(RHF) =  -228.854455666     A.U. after   14 cycles
 E2 =    -0.6710629577D+00 EUMP2 =    -0.22952551862363D+03
 CCSD(T)
 CCSD(T)= -0.22958634473D+03

 Alpha  occ. eigenvalues --  -20.61883 -20.61854 -11.28889 -11.22529  -1.46622
 Alpha  occ. eigenvalues --   -1.22391  -1.00399  -0.83577  -0.70670  -0.66396
 Alpha  occ. eigenvalues --   -0.64509  -0.57290  -0.55897  -0.53042  -0.49378
 Alpha  occ. eigenvalues --   -0.47663  -0.44202
 Alpha virt. eigenvalues --    0.18072   0.20872   0.22991   0.24180   0.26247
 Alpha virt. eigenvalues --    0.26741   0.29991   0.37389   0.40081   0.60007
 Alpha virt. eigenvalues --    0.61800   0.66269   0.74337   0.77735   0.80943

 Mulliken charges:
               1
     1  C   -0.081088
     2  C    0.186397
     3  O   -0.306089
     4  O   -0.201378
     5  H    0.202539
     6  H    0.045870
     7  H    0.021569
     8  H    0.042498
     9  H    0.030724
    10  H    0.058959
 Sum of Mulliken charges =   0.00000

 Dipole moment (field-independent basis, Debye):
    X=              1.1549    Y=              1.1499    Z=             -0.8145  Tot=              1.8219
 Quadrupole moment (field-independent basis, Debye-Ang):
   XX=            -21.3403   YY=            -27.7812   ZZ=            -21.6363
   XY=             -2.1021   XZ=              0.4725   YZ=             -2.1944

 CCSD(T)/cc-pVDZ SP Nosymm\\PEscan\\0,1\C,0,-0.7698,-1.0697,-3.36357\C,
 Normal termination of Gaussian 09 at Thu Dec 21 20:31:34 2017.
