 Gaussian 09, Revision D.01,
 Gaussian 09:  EM64L-G09RevD.01 24-Apr-2013

 ------------------------
 #P MP2/cc-pVQZ SP Nosymm
 ------------------------

 ------
 PEscan
 ------
 Symbolic Z-matrix:
 Charge =  0 Multiplicity = 1

                          Input orientation:
 ---------------------------------------------------------------------
 Center     Atomic      Atomic             Coordinates (Angstroms)
 Number     Number       Type             X           Y           Z
 ---------------------------------------------------------------------
      1          6           0       -0.580330   -1.119380   -3.298120
      2          6           0       -0.029110   -0.047880   -2.369300
      3          8           0        0.716080   -0.520410   -1.235630
      4          8           0        0.210090   -1.825570   -0.834370
      5          1           0        0.981340   -2.359170   -1.086130
      6          1           0       -1.339970   -1.730220   -2.793770
      7          1           0        0.688980    0.608520   -2.889980
      8          1           0       -0.868600    0.580290   -2.011270
      9          1           0       -1.041770   -0.624300   -4.168760
     10          1           0        0.218430   -1.783990   -3.667090
 ---------------------------------------------------------------------

 SCF Done:  E(RHF) =  -228.936555866     A.U. after   13 cycles
 E2 =    -0.9025734375D+00 EUMP2 =    -0.22983912930322D+03

 Alpha  occ. eigenvalues --  -20.61772 -20.61592 -11.28569 -11.22667  -1.46332
 Alpha  occ. eigenvalues --   -1.22067  -1.01079  -0.83410  -0.71676  -0.66655
 Alpha  occ. eigenvalues --   -0.62256  -0.61878  -0.53964  -0.53365  -0.51317
 Alpha  occ. eigenvalues --   -0.47796  -0.44127
 Alpha virt. eigenvalues --    0.10621   0.13866   0.15623   0.16871   0.18857
 Alpha virt. eigenvalues --    0.20112   0.22248   0.27208   0.28063   0.30190
 Alpha virt. eigenvalues --    0.31891   0.36799   0.37381   0.43413   0.44883

 Mulliken charges:
               1
     1  C   -0.231733
     2  C    0.148248
     3  O   -0.244723
     4  O   -0.298840
     5  H    0.280220
     6  H    0.101689
     7  H    0.070298
     8  H    0.041784
     9  H    0.076501
    10  H    0.056556
 Sum of Mulliken charges =   0.00000

 Dipole moment (field-independent basis, Debye):
    X=              0.2413    Y=             -0.4438    Z=             -2.0138  Tot=              2.0762
 Quadrupole moment (field-independent basis, Debye-Ang):
   XX=            -24.1134   YY=            -21.5516   ZZ=            -19.4119
   XY=             -3.0604   XZ=             -0.4639   YZ=              1.5123

 Normal termination of Gaussian 09 at Thu Dec 21 17:54:43 2017.
