 Gaussian 09, Revision D.01,
 Gaussian 09:  EM64L-G09RevD.01 24-Apr-2013

 ----------------------------
 #P CCSD(T)/cc-pVDZ SP Nosymm
 ----------------------------

 ------
 PEscan
 ------
 Symbolic Z-matrix:
 Charge =  0 Multiplicity = 1

                          Input orientation:
 ---------------------------------------------------------------------
 Center     Atomic      Atomic             Coordinates (Angstroms)
 Number     Number       Type             X           Y           Z
 ---------------------------------------------------------------------
      1          6           0       -0.854670   -1.031730   -3.432210
      2          6           0       -0.088450   -0.301470   -2.339700
      3          8           0       -0.055330   -1.048260   -1.122520
      4          8           0        1.137820   -1.886900   -1.184140
      5          1           0        1.627080   -1.484450   -0.447190
      6          1           0       -1.874770   -1.262330   -3.087610
      7          1           0        0.941440   -0.052800   -2.645200
      8          1           0       -0.608100    0.634950   -2.066040
      9          1           0       -0.919840   -0.411700   -4.342360
     10          1           0       -0.350020   -1.977420   -3.687430
 ---------------------------------------------------------------------

 SCF Done:  E(RHF) =  -228.853031919     A.U. after   14 cycles
 E2 =    -0.6703575707D+00 EUMP2 =    -0.22952338949007D+03
 CCSD(T)
 CCSD(T)= -0.22958433209D+03

 Alpha  occ. eigenvalues --  -20.61878 -20.61620 -11.28748 -11.22665  -1.46432
 Alpha  occ. eigenvalues --   -1.22265  -1.00278  -0.83765  -0.70933  -0.65625
 Alpha  occ. eigenvalues --   -0.64070  -0.58543  -0.55493  -0.53073  -0.48839
 Alpha  occ. eigenvalues --   -0.48088  -0.44009
 Alpha virt. eigenvalues --    0.18489   0.20153   0.23198   0.23731   0.26126
 Alpha virt. eigenvalues --    0.27086   0.29604   0.37908   0.39358   0.59452
 Alpha virt. eigenvalues --    0.61540   0.66617   0.74685   0.78394   0.80546

 Mulliken charges:
               1
     1  C   -0.071510
     2  C    0.182522
     3  O   -0.315432
     4  O   -0.199192
     5  H    0.203096
     6  H    0.045219
     7  H    0.034877
     8  H    0.039792
     9  H    0.029129
    10  H    0.051498
 Sum of Mulliken charges =   0.00000

 Dipole moment (field-independent basis, Debye):
    X=              0.8092    Y=              1.6213    Z=             -0.3646  Tot=              1.8483
 Quadrupole moment (field-independent basis, Debye-Ang):
   XX=            -22.4712   YY=            -29.0945   ZZ=            -21.7389
   XY=             -0.4699   XZ=              1.6104   YZ=             -2.8485

 CCSD(T)/cc-pVDZ SP Nosymm\\PEscan\\0,1\C,0,-0.85467,-1.03173,-3.43221\
 CCSD(T)=-229.5843321\RMSD=5.532e-09\PG=C01 [X(C2H6O2)]\\@
 Normal termination of Gaussian 09 at Thu Dec 21 20:34:35 2017.
