 Gaussian 09, Revision D.01,
 Gaussian 09:  EM64L-G09RevD.01 24-Apr-2013

 ----------------------------
 #P CCSD(T)/cc-pVDZ SP Nosymm
 ----------------------------

 ------
 PEscan
 ------
 Symbolic Z-matrix:
 Charge =  0 Multiplicity = 1

                          Input orientation:
 ---------------------------------------------------------------------
 Center     Atomic      Atomic             Coordinates (Angstroms)
 Number     Number       Type             X           Y           Z
 ---------------------------------------------------------------------
      1          6           0       -0.539750   -1.109430   -3.390340
      2          6           0        0.009290   -0.101570   -2.390910
      3          8           0        0.950140   -0.664400   -1.483010
      4          8           0        0.176480   -1.542710   -0.608220
      5          1           0        0.605580   -2.385960   -0.830740
      6          1           0       -1.114460   -1.890620   -2.870050
      7          1           0        0.598730    0.682630   -2.896550
      8          1           0       -0.806000    0.384990   -1.825200
      9          1           0       -1.208720   -0.610620   -4.111040
     10          1           0        0.283880   -1.584410   -3.948350
 ---------------------------------------------------------------------

 SCF Done:  E(RHF) =  -228.854704101     A.U. after   14 cycles
 E2 =    -0.6712320987D+00 EUMP2 =    -0.22952593619936D+03
 CCSD(T)
 CCSD(T)= -0.22958679890D+03

 Alpha  occ. eigenvalues --  -20.61908 -20.61867 -11.28837 -11.23179  -1.46571
 Alpha  occ. eigenvalues --   -1.22442  -1.00774  -0.83659  -0.71487  -0.66336
 Alpha  occ. eigenvalues --   -0.63090  -0.59789  -0.54267  -0.53562  -0.50367
 Alpha  occ. eigenvalues --   -0.47889  -0.44058
 Alpha virt. eigenvalues --    0.17766   0.20654   0.23533   0.23907   0.25547
 Alpha virt. eigenvalues --    0.26632   0.29561   0.37344   0.39640   0.59568
 Alpha virt. eigenvalues --    0.61664   0.65774   0.74438   0.77562   0.80647

 Mulliken charges:
               1
     1  C   -0.094075
     2  C    0.194405
     3  O   -0.306628
     4  O   -0.203551
     5  H    0.203625
     6  H    0.046265
     7  H    0.042649
     8  H    0.040970
     9  H    0.037165
    10  H    0.039176
 Sum of Mulliken charges =   0.00000

 Dipole moment (field-independent basis, Debye):
    X=             -0.5200    Y=             -0.7918    Z=             -1.6680  Tot=              1.9182
 Quadrupole moment (field-independent basis, Debye-Ang):
   XX=            -25.9914   YY=            -19.3836   ZZ=            -20.2250
   XY=             -1.4332   XZ=              0.8322   YZ=              0.8545

 CCSD(T)/cc-pVDZ SP Nosymm\\PEscan\\0,1\C,0,-0.53975,-1.10943,-3.39034\
 Normal termination of Gaussian 09 at Thu Dec 21 20:18:20 2017.
