 Gaussian 09, Revision D.01,
 Gaussian 09:  EM64L-G09RevD.01 24-Apr-2013

 ------------------------
 #P MP2/cc-pVQZ SP Nosymm
 ------------------------

 ------
 PEscan
 ------
 Symbolic Z-matrix:
 Charge =  0 Multiplicity = 1

                          Input orientation:
 ---------------------------------------------------------------------
 Center     Atomic      Atomic             Coordinates (Angstroms)
 Number     Number       Type             X           Y           Z
 ---------------------------------------------------------------------
      1          6           0       -0.567250   -1.025250   -3.665790
      2          6           0       -0.069380   -0.403110   -2.370470
      3          8           0        0.778260   -1.374180   -1.762890
      4          8           0        0.869460   -1.018900   -0.350590
      5          1           0        0.452060   -1.815100    0.018360
      6          1           0       -1.154590   -1.932150   -3.454450
      7          1           0        0.484180    0.537940   -2.548970
      8          1           0       -0.914140   -0.183850   -1.694100
      9          1           0       -1.201920   -0.306940   -4.209480
     10          1           0        0.278460   -1.300590   -4.316040
 ---------------------------------------------------------------------

 SCF Done:  E(RHF) =  -228.941957401     A.U. after   13 cycles
 E2 =    -0.9021291581D+00 EUMP2 =    -0.22984408655963D+03

 Alpha  occ. eigenvalues --  -20.61877 -20.61781 -11.28344 -11.22688  -1.46558
 Alpha  occ. eigenvalues --   -1.22572  -1.00388  -0.84011  -0.71273  -0.66406
 Alpha  occ. eigenvalues --   -0.65172  -0.59289  -0.54266  -0.53754  -0.49819
 Alpha  occ. eigenvalues --   -0.48978  -0.44578
 Alpha virt. eigenvalues --    0.11168   0.13135   0.15619   0.17264   0.18813
 Alpha virt. eigenvalues --    0.20770   0.22782   0.26883   0.27352   0.29827
 Alpha virt. eigenvalues --    0.31169   0.35666   0.37030   0.44848   0.46257

 Mulliken charges:
               1
     1  C   -0.209573
     2  C    0.165275
     3  O   -0.243286
     4  O   -0.303688
     5  H    0.279135
     6  H    0.076236
     7  H    0.049760
     8  H    0.039830
     9  H    0.065605
    10  H    0.080705
 Sum of Mulliken charges =   0.00000

 Dipole moment (field-independent basis, Debye):
    X=             -1.8714    Y=             -0.2089    Z=             -0.3339  Tot=              1.9124
 Quadrupole moment (field-independent basis, Debye-Ang):
   XX=            -27.2818   YY=            -23.4346   ZZ=            -21.5371
   XY=              2.0475   XZ=              2.1595   YZ=             -2.6391

 Normal termination of Gaussian 09 at Thu Dec 21 16:32:32 2017.
