 Gaussian 09, Revision D.01,
 Gaussian 09:  EM64L-G09RevD.01 24-Apr-2013

 ------------------------
 #P MP2/cc-pVQZ SP Nosymm
 ------------------------

 ------
 PEscan
 ------
 Symbolic Z-matrix:
 Charge =  0 Multiplicity = 1

                          Input orientation:
 ---------------------------------------------------------------------
 Center     Atomic      Atomic             Coordinates (Angstroms)
 Number     Number       Type             X           Y           Z
 ---------------------------------------------------------------------
      1          6           0       -0.614320   -1.111730   -3.291930
      2          6           0       -0.048620   -0.050750   -2.360570
      3          8           0        0.553250   -0.522720   -1.136490
      4          8           0        0.275600   -1.938540   -0.949360
      5          1           0        1.181200   -2.275460   -1.048300
      6          1           0       -1.432930   -1.669360   -2.817070
      7          1           0        0.742260    0.526950   -2.872840
      8          1           0       -0.854510    0.652840   -2.079590
      9          1           0       -1.003730   -0.603180   -4.189790
     10          1           0        0.156950   -1.830190   -3.608490
 ---------------------------------------------------------------------

 SCF Done:  E(RHF) =  -228.933863926     A.U. after   13 cycles
 E2 =    -0.9023451614D+00 EUMP2 =    -0.22983620908785D+03

 Alpha  occ. eigenvalues --  -20.61798 -20.61342 -11.28506 -11.22610  -1.46155
 Alpha  occ. eigenvalues --   -1.21829  -1.01047  -0.83272  -0.71349  -0.66611
 Alpha  occ. eigenvalues --   -0.63333  -0.60664  -0.53840  -0.53188  -0.51227
 Alpha  occ. eigenvalues --   -0.47929  -0.43742
 Alpha virt. eigenvalues --    0.10556   0.14037   0.15333   0.17131   0.18847
 Alpha virt. eigenvalues --    0.20649   0.21707   0.27039   0.28052   0.30370
 Alpha virt. eigenvalues --    0.31990   0.36504   0.37858   0.43560   0.44709

 Mulliken charges:
               1
     1  C   -0.221953
     2  C    0.144961
     3  O   -0.253243
     4  O   -0.291578
     5  H    0.277917
     6  H    0.094803
     7  H    0.057682
     8  H    0.050105
     9  H    0.078162
    10  H    0.063143
 Sum of Mulliken charges =   0.00000

 Dipole moment (field-independent basis, Debye):
    X=              0.6329    Y=             -0.1899    Z=             -1.8773  Tot=              1.9902
 Quadrupole moment (field-independent basis, Debye-Ang):
   XX=            -22.8479   YY=            -23.0204   ZZ=            -19.7154
   XY=             -3.5909   XZ=             -0.7317   YZ=              0.9301

 Normal termination of Gaussian 09 at Thu Dec 21 18:07:34 2017.
