 Gaussian 09, Revision D.01,
 Gaussian 09:  EM64L-G09RevD.01 24-Apr-2013

 ------------------------
 #P MP2/cc-pVQZ SP Nosymm
 ------------------------

 ------
 PEscan
 ------
 Symbolic Z-matrix:
 Charge =  0 Multiplicity = 1

                          Input orientation:
 ---------------------------------------------------------------------
 Center     Atomic      Atomic             Coordinates (Angstroms)
 Number     Number       Type             X           Y           Z
 ---------------------------------------------------------------------
      1          6           0       -0.939190   -0.987330   -3.483960
      2          6           0       -0.036900   -0.441870   -2.388350
      3          8           0        0.014350   -1.405360   -1.327020
      4          8           0        1.413830   -1.631460   -1.000330
      5          1           0        1.435650   -1.215790   -0.121670
      6          1           0       -1.942470   -1.209980   -3.086400
      7          1           0        0.986380   -0.286290   -2.763110
      8          1           0       -0.415090    0.520500   -1.991590
      9          1           0       -1.046220   -0.248590   -4.295870
     10          1           0       -0.515190   -1.915960   -3.896130
 ---------------------------------------------------------------------

 SCF Done:  E(RHF) =  -228.939422218     A.U. after   12 cycles
 E2 =    -0.9016557341D+00 EUMP2 =    -0.22984107795208D+03

 Alpha  occ. eigenvalues --  -20.61994 -20.61497 -11.28258 -11.22320  -1.46459
 Alpha  occ. eigenvalues --   -1.22240  -1.00299  -0.83952  -0.71916  -0.65567
 Alpha  occ. eigenvalues --   -0.63284  -0.61299  -0.54247  -0.53115  -0.49640
 Alpha  occ. eigenvalues --   -0.48705  -0.44445
 Alpha virt. eigenvalues --    0.11531   0.12864   0.16120   0.17095   0.18898
 Alpha virt. eigenvalues --    0.20496   0.22472   0.26903   0.27775   0.29583
 Alpha virt. eigenvalues --    0.30933   0.34529   0.37168   0.44945   0.46372

 Mulliken charges:
               1
     1  C   -0.202162
     2  C    0.141801
     3  O   -0.250839
     4  O   -0.292384
     5  H    0.276443
     6  H    0.075058
     7  H    0.061898
     8  H    0.048757
     9  H    0.058775
    10  H    0.082654
 Sum of Mulliken charges =   0.00000

 Dipole moment (field-independent basis, Debye):
    X=             -0.0544    Y=              1.8546    Z=             -0.0006  Tot=              1.8554
 Quadrupole moment (field-independent basis, Debye-Ang):
   XX=            -25.3247   YY=            -29.8888   ZZ=            -21.0223
   XY=              1.0746   XZ=              2.3532   YZ=             -2.6568

 Normal termination of Gaussian 09 at Thu Dec 21 19:35:36 2017.
