 Gaussian 09, Revision D.01,
 Gaussian 09:  EM64L-G09RevD.01 24-Apr-2013

 ----------------------------
 #P CCSD(T)/cc-pVDZ SP Nosymm
 ----------------------------

 ------
 PEscan
 ------
 Symbolic Z-matrix:
 Charge =  0 Multiplicity = 1

                          Input orientation:
 ---------------------------------------------------------------------
 Center     Atomic      Atomic             Coordinates (Angstroms)
 Number     Number       Type             X           Y           Z
 ---------------------------------------------------------------------
      1          6           0       -0.880310   -1.018990   -3.452470
      2          6           0       -0.081030   -0.340300   -2.350390
      3          8           0       -0.054330   -1.138780   -1.161940
      4          8           0        1.228710   -1.831700   -1.140070
      5          1           0        1.604310   -1.405500   -0.351590
      6          1           0       -1.899540   -1.240580   -3.099150
      7          1           0        0.953140   -0.120950   -2.659430
      8          1           0       -0.565600    0.607760   -2.051810
      9          1           0       -0.949550   -0.367020   -4.339830
     10          1           0       -0.400650   -1.966050   -3.747730
 ---------------------------------------------------------------------

 SCF Done:  E(RHF) =  -228.851799832     A.U. after   14 cycles
 E2 =    -0.6700967878D+00 EUMP2 =    -0.22952189662006D+03
 CCSD(T)
 CCSD(T)= -0.22958288357D+03

 Alpha  occ. eigenvalues --  -20.61904 -20.61470 -11.28694 -11.22730  -1.46348
 Alpha  occ. eigenvalues --   -1.22163  -1.00268  -0.83790  -0.71034  -0.65259
 Alpha  occ. eigenvalues --   -0.63955  -0.59210  -0.55024  -0.53062  -0.48902
 Alpha  occ. eigenvalues --   -0.48113  -0.43865
 Alpha virt. eigenvalues --    0.18576   0.19844   0.23338   0.23723   0.26177
 Alpha virt. eigenvalues --    0.26972   0.29564   0.37715   0.39519   0.59328
 Alpha virt. eigenvalues --    0.61360   0.66789   0.74673   0.78212   0.80198

 Mulliken charges:
               1
     1  C   -0.071052
     2  C    0.181562
     3  O   -0.320157
     4  O   -0.195973
     5  H    0.202763
     6  H    0.045338
     7  H    0.040278
     8  H    0.038445
     9  H    0.028976
    10  H    0.049821
 Sum of Mulliken charges =   0.00000

 Dipole moment (field-independent basis, Debye):
    X=              0.6498    Y=              1.7330    Z=             -0.2472  Tot=              1.8672
 Quadrupole moment (field-independent basis, Debye-Ang):
   XX=            -23.0590   YY=            -29.3717   ZZ=            -21.5901
   XY=             -0.0109   XZ=              1.8744   YZ=             -2.8970

 CCSD(T)/cc-pVDZ SP Nosymm\\PEscan\\0,1\C,0,-0.88031,-1.01899,-3.45247\
 8\CCSD(T)=-229.5828836\RMSD=5.058e-09\PG=C01 [X(C2H6O2)]\\@
 Normal termination of Gaussian 09 at Thu Dec 21 20:35:37 2017.
