 Gaussian 09, Revision D.01,
 Gaussian 09:  EM64L-G09RevD.01 24-Apr-2013

 ----------------------------
 #P CCSD(T)/cc-pVDZ SP Nosymm
 ----------------------------

 ------
 PEscan
 ------
 Symbolic Z-matrix:
 Charge =  0 Multiplicity = 1

                          Input orientation:
 ---------------------------------------------------------------------
 Center     Atomic      Atomic             Coordinates (Angstroms)
 Number     Number       Type             X           Y           Z
 ---------------------------------------------------------------------
      1          6           0       -0.985130   -0.971600   -3.453510
      2          6           0        0.133310   -0.544520   -2.516450
      3          8           0        0.351590   -1.646840   -1.645750
      4          8           0        1.424470   -1.236480   -0.747260
      5          1           0        0.921360   -1.230320    0.084490
      6          1           0       -1.900240   -1.200950   -2.885330
      7          1           0        1.060180   -0.312080   -3.071950
      8          1           0       -0.152710    0.350630   -1.931810
      9          1           0       -1.206840   -0.161430   -4.166370
     10          1           0       -0.690860   -1.868530   -4.020480
 ---------------------------------------------------------------------

 SCF Done:  E(RHF) =  -228.855088450     A.U. after   14 cycles
 E2 =    -0.6703638719D+00 EUMP2 =    -0.22952545232150D+03
 CCSD(T)
 CCSD(T)= -0.22958605776D+03

 Alpha  occ. eigenvalues --  -20.61826 -20.61728 -11.28741 -11.23336  -1.46604
 Alpha  occ. eigenvalues --   -1.22538  -1.00325  -0.83895  -0.71219  -0.65761
 Alpha  occ. eigenvalues --   -0.64253  -0.59907  -0.53916  -0.52503  -0.49942
 Alpha  occ. eigenvalues --   -0.48488  -0.44199
 Alpha virt. eigenvalues --    0.18395   0.19046   0.23558   0.24353   0.25988
 Alpha virt. eigenvalues --    0.28331   0.28847   0.36371   0.40019   0.59359
 Alpha virt. eigenvalues --    0.61633   0.67959   0.74326   0.76393   0.82294

 Mulliken charges:
               1
     1  C   -0.088619
     2  C    0.200755
     3  O   -0.316101
     4  O   -0.194462
     5  H    0.201446
     6  H    0.046134
     7  H    0.038234
     8  H    0.021510
     9  H    0.038586
    10  H    0.052518
 Sum of Mulliken charges =   0.00000

 Dipole moment (field-independent basis, Debye):
    X=             -1.2977    Y=              1.3795    Z=              0.2202  Tot=              1.9067
 Quadrupole moment (field-independent basis, Debye-Ang):
   XX=            -27.6395   YY=            -28.7492   ZZ=            -20.3114
   XY=              1.8882   XZ=              2.1755   YZ=             -3.0848

 CCSD(T)/cc-pVDZ SP Nosymm\\PEscan\\0,1\C,0,-0.98513,-0.9716,-3.45351\C
 \CCSD(T)=-229.5860578\RMSD=5.638e-09\PG=C01 [X(C2H6O2)]\\@
 Normal termination of Gaussian 09 at Thu Dec 21 20:43:44 2017.
