 Gaussian 09, Revision D.01,
 Gaussian 09:  EM64L-G09RevD.01 24-Apr-2013

 ------------------------
 #P MP2/cc-pVQZ SP Nosymm
 ------------------------

 ------
 PEscan
 ------
 Symbolic Z-matrix:
 Charge =  0 Multiplicity = 1

                          Input orientation:
 ---------------------------------------------------------------------
 Center     Atomic      Atomic             Coordinates (Angstroms)
 Number     Number       Type             X           Y           Z
 ---------------------------------------------------------------------
      1          6           0       -0.567220   -1.033800   -3.646360
      2          6           0       -0.045580   -0.364760   -2.383850
      3          8           0        0.837000   -1.296930   -1.758050
      4          8           0        0.772440   -1.045940   -0.321620
      5          1           0        0.442020   -1.917450   -0.047350
      6          1           0       -1.142860   -1.936920   -3.390990
      7          1           0        0.486290    0.579590   -2.606050
      8          1           0       -0.874660   -0.140180   -1.692310
      9          1           0       -1.218110   -0.339220   -4.202210
     10          1           0        0.265810   -1.326510   -4.305630
 ---------------------------------------------------------------------

 SCF Done:  E(RHF) =  -228.940606134     A.U. after   13 cycles
 E2 =    -0.9020585048D+00 EUMP2 =    -0.22984266463888D+03

 Alpha  occ. eigenvalues --  -20.61894 -20.61665 -11.28291 -11.22677  -1.46439
 Alpha  occ. eigenvalues --   -1.22486  -1.00401  -0.83989  -0.71038  -0.66721
 Alpha  occ. eigenvalues --   -0.65084  -0.58700  -0.54630  -0.54015  -0.49602
 Alpha  occ. eigenvalues --   -0.49033  -0.44373
 Alpha virt. eigenvalues --    0.11181   0.13179   0.15528   0.17294   0.18836
 Alpha virt. eigenvalues --    0.20687   0.22639   0.26782   0.27548   0.29443
 Alpha virt. eigenvalues --    0.31103   0.35364   0.37058   0.44868   0.46358

 Mulliken charges:
               1
     1  C   -0.205861
     2  C    0.155657
     3  O   -0.246984
     4  O   -0.298861
     5  H    0.277104
     6  H    0.074100
     7  H    0.052383
     8  H    0.048605
     9  H    0.064868
    10  H    0.078990
 Sum of Mulliken charges =   0.00000

 Dipole moment (field-independent basis, Debye):
    X=             -1.7840    Y=             -0.3778    Z=             -0.4812  Tot=              1.8860
 Quadrupole moment (field-independent basis, Debye-Ang):
   XX=            -27.2134   YY=            -22.5343   ZZ=            -21.6524
   XY=              1.8534   XZ=              2.1403   YZ=             -2.3493

 Normal termination of Gaussian 09 at Thu Dec 21 16:38:37 2017.
