 Gaussian 09, Revision D.01,
 Gaussian 09:  EM64L-G09RevD.01 24-Apr-2013

 ----------------------------
 #P CCSD(T)/cc-pVDZ SP Nosymm
 ----------------------------

 ------
 PEscan
 ------
 Symbolic Z-matrix:
 Charge =  0 Multiplicity = 1

                          Input orientation:
 ---------------------------------------------------------------------
 Center     Atomic      Atomic             Coordinates (Angstroms)
 Number     Number       Type             X           Y           Z
 ---------------------------------------------------------------------
      1          6           0       -0.939190   -0.987330   -3.483960
      2          6           0       -0.036900   -0.441870   -2.388350
      3          8           0        0.014350   -1.405360   -1.327020
      4          8           0        1.413830   -1.631460   -1.000330
      5          1           0        1.435650   -1.215790   -0.121670
      6          1           0       -1.942470   -1.209980   -3.086400
      7          1           0        0.986380   -0.286290   -2.763110
      8          1           0       -0.415090    0.520500   -1.991590
      9          1           0       -1.046220   -0.248590   -4.295870
     10          1           0       -0.515190   -1.915960   -3.896130
 ---------------------------------------------------------------------

 SCF Done:  E(RHF) =  -228.851030898     A.U. after   14 cycles
 E2 =    -0.6699790057D+00 EUMP2 =    -0.22952100990377D+03
 CCSD(T)
 CCSD(T)= -0.22958189452D+03

 Alpha  occ. eigenvalues --  -20.61950 -20.61351 -11.28616 -11.22976  -1.46371
 Alpha  occ. eigenvalues --   -1.22125  -1.00265  -0.83830  -0.71439  -0.65186
 Alpha  occ. eigenvalues --   -0.62863  -0.60971  -0.53903  -0.52800  -0.49344
 Alpha  occ. eigenvalues --   -0.48133  -0.43951
 Alpha virt. eigenvalues --    0.18671   0.19056   0.23843   0.24031   0.26432
 Alpha virt. eigenvalues --    0.26639   0.29778   0.36932   0.39752   0.59563
 Alpha virt. eigenvalues --    0.60809   0.67315   0.74616   0.76633   0.80325

 Mulliken charges:
               1
     1  C   -0.076835
     2  C    0.182341
     3  O   -0.323066
     4  O   -0.189648
     5  H    0.201307
     6  H    0.046011
     7  H    0.048181
     8  H    0.030253
     9  H    0.031429
    10  H    0.050027
 Sum of Mulliken charges =   0.00000

 Dipole moment (field-independent basis, Debye):
    X=              0.0196    Y=              1.9115    Z=              0.0479  Tot=              1.9122
 Quadrupole moment (field-independent basis, Debye-Ang):
   XX=            -25.0785   YY=            -29.8513   ZZ=            -21.0170
   XY=              1.0261   XZ=              2.2955   YZ=             -2.8902

 CCSD(T)/cc-pVDZ SP Nosymm\\PEscan\\0,1\C,0,-0.93919,-0.98733,-3.48396\
 5\CCSD(T)=-229.5818945\RMSD=4.164e-09\PG=C01 [X(C2H6O2)]\\@
 Normal termination of Gaussian 09 at Thu Dec 21 20:38:40 2017.
