 Gaussian 09, Revision D.01,
 Gaussian 09:  EM64L-G09RevD.01 24-Apr-2013

 ------------------------
 #P MP2/cc-pVQZ SP Nosymm
 ------------------------

 ------
 PEscan
 ------
 Symbolic Z-matrix:
 Charge =  0 Multiplicity = 1

                          Input orientation:
 ---------------------------------------------------------------------
 Center     Atomic      Atomic             Coordinates (Angstroms)
 Number     Number       Type             X           Y           Z
 ---------------------------------------------------------------------
      1          6           0       -0.880310   -1.018990   -3.452470
      2          6           0       -0.081030   -0.340300   -2.350390
      3          8           0       -0.054330   -1.138780   -1.161940
      4          8           0        1.228710   -1.831700   -1.140070
      5          1           0        1.604310   -1.405500   -0.351590
      6          1           0       -1.899540   -1.240580   -3.099150
      7          1           0        0.953140   -0.120950   -2.659430
      8          1           0       -0.565600    0.607760   -2.051810
      9          1           0       -0.949550   -0.367020   -4.339830
     10          1           0       -0.400650   -1.966050   -3.747730
 ---------------------------------------------------------------------

 SCF Done:  E(RHF) =  -228.939958082     A.U. after   12 cycles
 E2 =    -0.9018229384D+00 EUMP2 =    -0.22984178102059D+03

 Alpha  occ. eigenvalues --  -20.61938 -20.61588 -11.28320 -11.22089  -1.46428
 Alpha  occ. eigenvalues --   -1.22274  -1.00302  -0.83914  -0.71503  -0.65635
 Alpha  occ. eigenvalues --   -0.64351  -0.59522  -0.55453  -0.53326  -0.49197
 Alpha  occ. eigenvalues --   -0.48669  -0.44362
 Alpha virt. eigenvalues --    0.11686   0.13119   0.15868   0.16895   0.18818
 Alpha virt. eigenvalues --    0.20397   0.22516   0.26749   0.28101   0.29804
 Alpha virt. eigenvalues --    0.30861   0.34567   0.38396   0.44902   0.45688

 Mulliken charges:
               1
     1  C   -0.201084
     2  C    0.135197
     3  O   -0.250215
     4  O   -0.297671
     5  H    0.278687
     6  H    0.076961
     7  H    0.051424
     8  H    0.069540
     9  H    0.058455
    10  H    0.078706
 Sum of Mulliken charges =   0.00000

 Dipole moment (field-independent basis, Debye):
    X=              0.5628    Y=              1.6960    Z=             -0.2731  Tot=              1.8077
 Quadrupole moment (field-independent basis, Debye-Ang):
   XX=            -23.3177   YY=            -29.4639   ZZ=            -21.6519
   XY=              0.1057   XZ=              1.9840   YZ=             -2.7304

 Normal termination of Gaussian 09 at Thu Dec 21 19:17:23 2017.
