 Gaussian 09, Revision D.01,
 Gaussian 09:  EM64L-G09RevD.01 24-Apr-2013

 ------------------------
 #P MP2/cc-pVQZ SP Nosymm
 ------------------------

 ------
 PEscan
 ------
 Symbolic Z-matrix:
 Charge =  0 Multiplicity = 1

                          Input orientation:
 ---------------------------------------------------------------------
 Center     Atomic      Atomic             Coordinates (Angstroms)
 Number     Number       Type             X           Y           Z
 ---------------------------------------------------------------------
      1          6           0       -0.902850   -1.006910   -3.467940
      2          6           0       -0.071270   -0.376690   -2.361220
      3          8           0       -0.043390   -1.232140   -1.209600
      4          8           0        1.305220   -1.770720   -1.093910
      5          1           0        1.565680   -1.330830   -0.267290
      6          1           0       -1.919390   -1.224950   -3.104150
      7          1           0        0.963730   -0.185480   -2.683360
      8          1           0       -0.518730    0.580570   -2.033620
      9          1           0       -0.980070   -0.324080   -4.331080
     10          1           0       -0.443770   -1.950890   -3.802260
 ---------------------------------------------------------------------

 SCF Done:  E(RHF) =  -228.939151730     A.U. after   12 cycles
 E2 =    -0.9016488231D+00 EUMP2 =    -0.22984080055267D+03

 Alpha  occ. eigenvalues --  -20.61974 -20.61485 -11.28282 -11.22157  -1.46395
 Alpha  occ. eigenvalues --   -1.22201  -1.00300  -0.83932  -0.71633  -0.65400
 Alpha  occ. eigenvalues --   -0.64166  -0.60141  -0.54978  -0.53318  -0.49300
 Alpha  occ. eigenvalues --   -0.48668  -0.44311
 Alpha virt. eigenvalues --    0.11650   0.13013   0.15963   0.16963   0.18856
 Alpha virt. eigenvalues --    0.20350   0.22457   0.26723   0.28088   0.29583
 Alpha virt. eigenvalues --    0.30905   0.34491   0.37771   0.44919   0.45855

 Mulliken charges:
               1
     1  C   -0.200075
     2  C    0.133936
     3  O   -0.252453
     4  O   -0.293029
     5  H    0.276191
     6  H    0.076497
     7  H    0.056716
     8  H    0.064823
     9  H    0.058033
    10  H    0.079360
 Sum of Mulliken charges =   0.00000

 Dipole moment (field-independent basis, Debye):
    X=              0.3861    Y=              1.7823    Z=             -0.1753  Tot=              1.8320
 Quadrupole moment (field-independent basis, Debye-Ang):
   XX=            -23.9588   YY=            -29.6791   ZZ=            -21.4547
   XY=              0.4852   XZ=              2.1567   YZ=             -2.7064

 Normal termination of Gaussian 09 at Thu Dec 21 19:23:30 2017.
