 Gaussian 09, Revision D.01,
 Gaussian 09:  EM64L-G09RevD.01 24-Apr-2013

 ------------------------
 #P MP2/cc-pVQZ SP Nosymm
 ------------------------

 ------
 PEscan
 ------
 Symbolic Z-matrix:
 Charge =  0 Multiplicity = 1

                          Input orientation:
 ---------------------------------------------------------------------
 Center     Atomic      Atomic             Coordinates (Angstroms)
 Number     Number       Type             X           Y           Z
 ---------------------------------------------------------------------
      1          6           0       -0.597870   -1.115320   -3.293640
      2          6           0       -0.039420   -0.047560   -2.365330
      3          8           0        0.637250   -0.518250   -1.183810
      4          8           0        0.238640   -1.887990   -0.894440
      5          1           0        1.090130   -2.321500   -1.067640
      6          1           0       -1.390650   -1.696410   -2.804750
      7          1           0        0.715070    0.570680   -2.882780
      8          1           0       -0.865420    0.618280   -2.048650
      9          1           0       -1.019070   -0.613370   -4.180740
     10          1           0        0.186490   -1.810680   -3.632640
 ---------------------------------------------------------------------

 SCF Done:  E(RHF) =  -228.934904438     A.U. after   12 cycles
 E2 =    -0.9024429946D+00 EUMP2 =    -0.22983734743290D+03

 Alpha  occ. eigenvalues --  -20.61780 -20.61443 -11.28532 -11.22642  -1.46217
 Alpha  occ. eigenvalues --   -1.21929  -1.01064  -0.83317  -0.71516  -0.66627
 Alpha  occ. eigenvalues --   -0.62779  -0.61275  -0.53886  -0.53243  -0.51288
 Alpha  occ. eigenvalues --   -0.47866  -0.43882
 Alpha virt. eigenvalues --    0.10570   0.13959   0.15485   0.17014   0.18865
 Alpha virt. eigenvalues --    0.20373   0.21974   0.27114   0.28034   0.30293
 Alpha virt. eigenvalues --    0.32007   0.36572   0.37644   0.43493   0.44788

 Mulliken charges:
               1
     1  C   -0.226897
     2  C    0.146733
     3  O   -0.249877
     4  O   -0.294492
     5  H    0.278895
     6  H    0.099565
     7  H    0.064458
     8  H    0.045232
     9  H    0.077369
    10  H    0.059015
 Sum of Mulliken charges =   0.00000

 Dipole moment (field-independent basis, Debye):
    X=              0.4533    Y=             -0.3237    Z=             -1.9461  Tot=              2.0242
 Quadrupole moment (field-independent basis, Debye-Ang):
   XX=            -23.4407   YY=            -22.2835   ZZ=            -19.5525
   XY=             -3.3942   XZ=             -0.6348   YZ=              1.2287

 Normal termination of Gaussian 09 at Thu Dec 21 18:01:09 2017.
