 Gaussian 09, Revision D.01,
 Gaussian 09:  EM64L-G09RevD.01 24-Apr-2013

 ------------------------
 #P MP2/cc-pVQZ SP Nosymm
 ------------------------

 ------
 PEscan
 ------
 Symbolic Z-matrix:
 Charge =  0 Multiplicity = 1

                          Input orientation:
 ---------------------------------------------------------------------
 Center     Atomic      Atomic             Coordinates (Angstroms)
 Number     Number       Type             X           Y           Z
 ---------------------------------------------------------------------
      1          6           0       -0.559790   -1.062440   -3.570280
      2          6           0       -0.000850   -0.260070   -2.403900
      3          8           0        0.970300   -1.044810   -1.697420
      4          8           0        0.499260   -1.190240   -0.324180
      5          1           0        0.431580   -2.159350   -0.298740
      6          1           0       -1.095320   -1.953750   -3.204970
      7          1           0        0.506320    0.654500   -2.762090
      8          1           0       -0.790050    0.036910   -1.697070
      9          1           0       -1.260350   -0.448540   -4.161200
     10          1           0        0.254050   -1.394330   -4.234570
 ---------------------------------------------------------------------

 SCF Done:  E(RHF) =  -228.938527465     A.U. after   13 cycles
 E2 =    -0.9018053530D+00 EUMP2 =    -0.22984033281787D+03

 Alpha  occ. eigenvalues --  -20.61983 -20.61452 -11.28225 -11.22613  -1.46283
 Alpha  occ. eigenvalues --   -1.22253  -1.00509  -0.83976  -0.71127  -0.66918
 Alpha  occ. eigenvalues --   -0.64399  -0.57140  -0.56696  -0.54016  -0.49270
 Alpha  occ. eigenvalues --   -0.49193  -0.44016
 Alpha virt. eigenvalues --    0.11211   0.13332   0.15363   0.17231   0.18791
 Alpha virt. eigenvalues --    0.20485   0.22373   0.26370   0.28043   0.28932
 Alpha virt. eigenvalues --    0.30923   0.35057   0.37765   0.44924   0.46041

 Mulliken charges:
               1
     1  C   -0.203362
     2  C    0.136506
     3  O   -0.252064
     4  O   -0.297039
     5  H    0.279909
     6  H    0.065624
     7  H    0.065757
     8  H    0.060626
     9  H    0.065535
    10  H    0.078509
 Sum of Mulliken charges =   0.00000

 Dipole moment (field-independent basis, Debye):
    X=             -1.4556    Y=             -0.6855    Z=             -0.9397  Tot=              1.8633
 Quadrupole moment (field-independent basis, Debye-Ang):
   XX=            -27.1008   YY=            -20.5274   ZZ=            -21.6158
   XY=              0.9994   XZ=              1.9531   YZ=             -1.1521

 Normal termination of Gaussian 09 at Thu Dec 21 16:57:15 2017.
