 Gaussian 09, Revision D.01,
 Gaussian 09:  EM64L-G09RevD.01 24-Apr-2013

 ----------------------------
 #P CCSD(T)/cc-pVDZ SP Nosymm
 ----------------------------

 ------
 PEscan
 ------
 Symbolic Z-matrix:
 Charge =  0 Multiplicity = 1

                          Input orientation:
 ---------------------------------------------------------------------
 Center     Atomic      Atomic             Coordinates (Angstroms)
 Number     Number       Type             X           Y           Z
 ---------------------------------------------------------------------
      1          6           0       -0.741390   -1.080170   -3.345590
      2          6           0       -0.091440   -0.155560   -2.327470
      3          8           0        0.069220   -0.729460   -1.031820
      4          8           0        0.705500   -2.028620   -1.214440
      5          1           0        1.561120   -1.830350   -0.797410
      6          1           0       -1.706810   -1.452870   -2.966650
      7          1           0        0.889330    0.195490   -2.709350
      8          1           0       -0.717740    0.728580   -2.120060
      9          1           0       -0.919460   -0.528260   -4.283510
     10          1           0       -0.093160   -1.940870   -3.558120
 ---------------------------------------------------------------------

 SCF Done:  E(RHF) =  -228.853256551     A.U. after   14 cycles
 E2 =    -0.6710260065D+00 EUMP2 =    -0.22952428255795D+03
 CCSD(T)
 CCSD(T)= -0.22958514512D+03

 Alpha  occ. eigenvalues --  -20.61866 -20.61796 -11.28916 -11.22595  -1.46588
 Alpha  occ. eigenvalues --   -1.22313  -1.00501  -0.83507  -0.70519  -0.66471
 Alpha  occ. eigenvalues --   -0.64703  -0.57588  -0.55299  -0.53031  -0.49704
 Alpha  occ. eigenvalues --   -0.47559  -0.44053
 Alpha virt. eigenvalues --    0.17839   0.21047   0.22983   0.24325   0.26317
 Alpha virt. eigenvalues --    0.26488   0.29806   0.37130   0.40656   0.59830
 Alpha virt. eigenvalues --    0.61836   0.66458   0.74260   0.77172   0.80918

 Mulliken charges:
               1
     1  C   -0.082908
     2  C    0.187267
     3  O   -0.306997
     4  O   -0.199786
     5  H    0.202108
     6  H    0.047329
     7  H    0.019898
     8  H    0.043582
     9  H    0.031711
    10  H    0.057795
 Sum of Mulliken charges =   0.00000

 Dipole moment (field-independent basis, Debye):
    X=              1.2174    Y=              0.9529    Z=             -1.0290  Tot=              1.8571
 Quadrupole moment (field-independent basis, Debye-Ang):
   XX=            -21.1797   YY=            -27.1973   ZZ=            -21.3065
   XY=             -2.6368   XZ=              0.0633   YZ=             -1.7438

 CCSD(T)/cc-pVDZ SP Nosymm\\PEscan\\0,1\C,0,-0.74139,-1.08017,-3.34559\
 Normal termination of Gaussian 09 at Thu Dec 21 20:30:34 2017.
