 Gaussian 09, Revision D.01,
 Gaussian 09:  EM64L-G09RevD.01 24-Apr-2013

 ------------------------
 #P MP2/cc-pVQZ SP Nosymm
 ------------------------

 ------
 PEscan
 ------
 Symbolic Z-matrix:
 Charge =  0 Multiplicity = 1

                          Input orientation:
 ---------------------------------------------------------------------
 Center     Atomic      Atomic             Coordinates (Angstroms)
 Number     Number       Type             X           Y           Z
 ---------------------------------------------------------------------
      1          6           0       -0.854670   -1.031730   -3.432210
      2          6           0       -0.088450   -0.301470   -2.339700
      3          8           0       -0.055330   -1.048260   -1.122520
      4          8           0        1.137820   -1.886900   -1.184140
      5          1           0        1.627080   -1.484450   -0.447190
      6          1           0       -1.874770   -1.262330   -3.087610
      7          1           0        0.941440   -0.052800   -2.645200
      8          1           0       -0.608100    0.634950   -2.066040
      9          1           0       -0.919840   -0.411700   -4.342360
     10          1           0       -0.350020   -1.977420   -3.687430
 ---------------------------------------------------------------------

 SCF Done:  E(RHF) =  -228.941098442     A.U. after   13 cycles
 E2 =    -0.9021017244D+00 EUMP2 =    -0.22984320016624D+03

 Alpha  occ. eigenvalues --  -20.61905 -20.61729 -11.28370 -11.22024  -1.46504
 Alpha  occ. eigenvalues --   -1.22371  -1.00312  -0.83890  -0.71398  -0.65991
 Alpha  occ. eigenvalues --   -0.64463  -0.58849  -0.55927  -0.53333  -0.49159
 Alpha  occ. eigenvalues --   -0.48609  -0.44506
 Alpha virt. eigenvalues --    0.11695   0.13247   0.15754   0.16869   0.18809
 Alpha virt. eigenvalues --    0.20470   0.22598   0.26889   0.28089   0.29997
 Alpha virt. eigenvalues --    0.30797   0.34679   0.39159   0.44792   0.45718

 Mulliken charges:
               1
     1  C   -0.203266
     2  C    0.138989
     3  O   -0.246403
     4  O   -0.301798
     5  H    0.280622
     6  H    0.076949
     7  H    0.044836
     8  H    0.071693
     9  H    0.058781
    10  H    0.079597
 Sum of Mulliken charges =   0.00000

 Dipole moment (field-independent basis, Debye):
    X=              0.7218    Y=              1.5940    Z=             -0.3841  Tot=              1.7914
 Quadrupole moment (field-independent basis, Debye-Ang):
   XX=            -22.7230   YY=            -29.2068   ZZ=            -21.8236
   XY=             -0.3354   XZ=              1.7274   YZ=             -2.7129

 Normal termination of Gaussian 09 at Thu Dec 21 19:11:18 2017.
