 Gaussian 09, Revision D.01,
 Gaussian 09:  EM64L-G09RevD.01 24-Apr-2013

 ------------------------
 #P MP2/cc-pVQZ SP Nosymm
 ------------------------

 ------
 PEscan
 ------
 Symbolic Z-matrix:
 Charge =  0 Multiplicity = 1

                          Input orientation:
 ---------------------------------------------------------------------
 Center     Atomic      Atomic             Coordinates (Angstroms)
 Number     Number       Type             X           Y           Z
 ---------------------------------------------------------------------
      1          6           0       -0.647520   -1.105470   -3.296710
      2          6           0       -0.064320   -0.068670   -2.349120
      3          8           0        0.374080   -0.552140   -1.062420
      4          8           0        0.370310   -2.005510   -1.042760
      5          1           0        1.329760   -2.157770   -1.008890
      6          1           0       -1.507140   -1.623730   -2.846560
      7          1           0        0.800080    0.424080   -2.836910
      8          1           0       -0.813490    0.709510   -2.121860
      9          1           0       -0.985570   -0.583040   -4.207300
     10          1           0        0.098970   -1.859380   -3.581890
 ---------------------------------------------------------------------

 SCF Done:  E(RHF) =  -228.934245696     A.U. after   13 cycles
 E2 =    -0.9023244432D+00 EUMP2 =    -0.22983657013931D+03

 Alpha  occ. eigenvalues --  -20.61834 -20.61365 -11.28505 -11.22471  -1.46224
 Alpha  occ. eigenvalues --   -1.21836  -1.00961  -0.83326  -0.71036  -0.66621
 Alpha  occ. eigenvalues --   -0.64418  -0.59578  -0.53923  -0.53201  -0.51057
 Alpha  occ. eigenvalues --   -0.47985  -0.43780
 Alpha virt. eigenvalues --    0.10639   0.14089   0.15067   0.17262   0.18824
 Alpha virt. eigenvalues --    0.20982   0.21533   0.27089   0.28217   0.30492
 Alpha virt. eigenvalues --    0.31647   0.36808   0.37853   0.43616   0.44652

 Mulliken charges:
               1
     1  C   -0.216607
     2  C    0.140186
     3  O   -0.251344
     4  O   -0.292386
     5  H    0.277418
     6  H    0.086272
     7  H    0.043454
     8  H    0.061646
     9  H    0.076576
    10  H    0.074785
 Sum of Mulliken charges =   0.00000

 Dipole moment (field-independent basis, Debye):
    X=              0.9273    Y=              0.1303    Z=             -1.7205  Tot=              1.9588
 Quadrupole moment (field-independent basis, Debye-Ang):
   XX=            -21.9308   YY=            -24.4906   ZZ=            -20.1354
   XY=             -3.6565   XZ=             -0.7609   YZ=              0.2771

 Normal termination of Gaussian 09 at Thu Dec 21 18:20:33 2017.
