 Gaussian 09, Revision D.01,
 Gaussian 09:  EM64L-G09RevD.01 24-Apr-2013

 ----------------------------
 #P CCSD(T)/cc-pVDZ SP Nosymm
 ----------------------------

 ------
 PEscan
 ------
 Symbolic Z-matrix:
 Charge =  0 Multiplicity = 1

                          Input orientation:
 ---------------------------------------------------------------------
 Center     Atomic      Atomic             Coordinates (Angstroms)
 Number     Number       Type             X           Y           Z
 ---------------------------------------------------------------------
      1          6           0       -0.551350   -1.121390   -3.327210
      2          6           0       -0.007990   -0.062770   -2.378360
      3          8           0        0.855450   -0.561590   -1.356620
      4          8           0        0.178710   -1.686460   -0.721510
      5          1           0        0.760800   -2.399270   -1.033000
      6          1           0       -1.225850   -1.809380   -2.799860
      7          1           0        0.637720    0.663200   -2.900720
      8          1           0       -0.849500    0.490870   -1.917680
      9          1           0       -1.113230   -0.632630   -4.140200
     10          1           0        0.270390   -1.702690   -3.779270
 ---------------------------------------------------------------------

 SCF Done:  E(RHF) =  -228.852645335     A.U. after   14 cycles
 E2 =    -0.6712216164D+00 EUMP2 =    -0.22952386695151D+03
 CCSD(T)
 CCSD(T)= -0.22958482040D+03

 Alpha  occ. eigenvalues --  -20.61862 -20.61788 -11.28958 -11.23326  -1.46542
 Alpha  occ. eigenvalues --   -1.22298  -1.01018  -0.83528  -0.71482  -0.66351
 Alpha  occ. eigenvalues --   -0.62493  -0.60949  -0.53974  -0.53338  -0.50829
 Alpha  occ. eigenvalues --   -0.47370  -0.44133
 Alpha virt. eigenvalues --    0.17352   0.20946   0.23781   0.24079   0.25374
 Alpha virt. eigenvalues --    0.26199   0.29428   0.36796   0.40550   0.59396
 Alpha virt. eigenvalues --    0.61641   0.66145   0.74159   0.76439   0.80482

 Mulliken charges:
               1
     1  C   -0.105998
     2  C    0.200815
     3  O   -0.310032
     4  O   -0.199665
     5  H    0.203765
     6  H    0.058210
     7  H    0.043519
     8  H    0.036311
     9  H    0.038934
    10  H    0.034144
 Sum of Mulliken charges =   0.00000

 Dipole moment (field-independent basis, Debye):
    X=             -0.1871    Y=             -0.6882    Z=             -1.9950  Tot=              2.1187
 Quadrupole moment (field-independent basis, Debye-Ang):
   XX=            -25.1928   YY=            -20.0254   ZZ=            -19.3934
   XY=             -2.2441   XZ=              0.1696   YZ=              1.5654

 CCSD(T)/cc-pVDZ SP Nosymm\\PEscan\\0,1\C,0,-0.55135,-1.12139,-3.32721\
 Normal termination of Gaussian 09 at Thu Dec 21 20:20:20 2017.
