 Gaussian 09, Revision D.01,
 Gaussian 09:  EM64L-G09RevD.01 24-Apr-2013

 ----------------------------
 #P CCSD(T)/cc-pVDZ SP Nosymm
 ----------------------------

 ------
 PEscan
 ------
 Symbolic Z-matrix:
 Charge =  0 Multiplicity = 1

                          Input orientation:
 ---------------------------------------------------------------------
 Center     Atomic      Atomic             Coordinates (Angstroms)
 Number     Number       Type             X           Y           Z
 ---------------------------------------------------------------------
      1          6           0       -0.541250   -1.100030   -3.429130
      2          6           0        0.012780   -0.129550   -2.396020
      3          8           0        0.977390   -0.732250   -1.538930
      4          8           0        0.202120   -1.470400   -0.543290
      5          1           0        0.557520   -2.359770   -0.709500
      6          1           0       -1.082900   -1.919650   -2.930620
      7          1           0        0.581100    0.681360   -2.884290
      8          1           0       -0.787320    0.324470   -1.786350
      9          1           0       -1.242550   -0.587310   -4.108410
     10          1           0        0.278270   -1.528990   -4.027890
 ---------------------------------------------------------------------

 SCF Done:  E(RHF) =  -228.854372832     A.U. after   14 cycles
 E2 =    -0.6709923539D+00 EUMP2 =    -0.22952536518563D+03
 CCSD(T)
 CCSD(T)= -0.22958623999D+03

 Alpha  occ. eigenvalues --  -20.61913 -20.61795 -11.28756 -11.23162  -1.46496
 Alpha  occ. eigenvalues --   -1.22419  -1.00671  -0.83721  -0.71396  -0.66288
 Alpha  occ. eigenvalues --   -0.63303  -0.59158  -0.54587  -0.53650  -0.50060
 Alpha  occ. eigenvalues --   -0.48186  -0.43864
 Alpha virt. eigenvalues --    0.17870   0.20438   0.23457   0.23755   0.25671
 Alpha virt. eigenvalues --    0.26896   0.29537   0.37612   0.39414   0.59480
 Alpha virt. eigenvalues --    0.61637   0.65750   0.74575   0.77925   0.80817

 Mulliken charges:
               1
     1  C   -0.086023
     2  C    0.190666
     3  O   -0.308685
     4  O   -0.203208
     5  H    0.203182
     6  H    0.040702
     7  H    0.042067
     8  H    0.044245
     9  H    0.035946
    10  H    0.041109
 Sum of Mulliken charges =   0.00000

 Dipole moment (field-independent basis, Debye):
    X=             -0.6828    Y=             -0.8158    Z=             -1.4909  Tot=              1.8315
 Quadrupole moment (field-independent basis, Debye-Ang):
   XX=            -26.2613   YY=            -19.3027   ZZ=            -20.6061
   XY=             -1.0336   XZ=              1.1302   YZ=              0.4116

 CCSD(T)/cc-pVDZ SP Nosymm\\PEscan\\0,1\C,0,-0.54125,-1.10003,-3.42913\
 Normal termination of Gaussian 09 at Thu Dec 21 20:17:15 2017.
