 Gaussian 09, Revision D.01,
 Gaussian 09:  EM64L-G09RevD.01 24-Apr-2013

 ----------------------------
 #P CCSD(T)/cc-pVDZ SP Nosymm
 ----------------------------

 ------
 PEscan
 ------
 Symbolic Z-matrix:
 Charge =  0 Multiplicity = 1

                          Input orientation:
 ---------------------------------------------------------------------
 Center     Atomic      Atomic             Coordinates (Angstroms)
 Number     Number       Type             X           Y           Z
 ---------------------------------------------------------------------
      1          6           0       -0.614320   -1.111730   -3.291930
      2          6           0       -0.048620   -0.050750   -2.360570
      3          8           0        0.553250   -0.522720   -1.136490
      4          8           0        0.275600   -1.938540   -0.949360
      5          1           0        1.181200   -2.275460   -1.048300
      6          1           0       -1.432930   -1.669360   -2.817070
      7          1           0        0.742260    0.526950   -2.872840
      8          1           0       -0.854510    0.652840   -2.079590
      9          1           0       -1.003730   -0.603180   -4.189790
     10          1           0        0.156950   -1.830190   -3.608490
 ---------------------------------------------------------------------

 SCF Done:  E(RHF) =  -228.845831911     A.U. after   14 cycles
 E2 =    -0.6702370154D+00 EUMP2 =    -0.22951606892633D+03
 CCSD(T)
 CCSD(T)= -0.22957732163D+03

 Alpha  occ. eigenvalues --  -20.61832 -20.61194 -11.28878 -11.23340  -1.46099
 Alpha  occ. eigenvalues --   -1.21733  -1.01077  -0.83196  -0.70906  -0.66218
 Alpha  occ. eigenvalues --   -0.63034  -0.60264  -0.53617  -0.52938  -0.50915
 Alpha  occ. eigenvalues --   -0.47386  -0.43295
 Alpha virt. eigenvalues --    0.16804   0.21230   0.23601   0.24434   0.25909
 Alpha virt. eigenvalues --    0.26263   0.28659   0.35974   0.42772   0.59110
 Alpha virt. eigenvalues --    0.61854   0.67490   0.73908   0.75153   0.80759

 Mulliken charges:
               1
     1  C   -0.088482
     2  C    0.198752
     3  O   -0.328107
     4  O   -0.191405
     5  H    0.203650
     6  H    0.060738
     7  H    0.036937
     8  H    0.038698
     9  H    0.036066
    10  H    0.033154
 Sum of Mulliken charges =   0.00000

 Dipole moment (field-independent basis, Debye):
    X=              0.6673    Y=             -0.2333    Z=             -1.9341  Tot=              2.0593
 Quadrupole moment (field-independent basis, Debye-Ang):
   XX=            -22.6901   YY=            -22.7305   ZZ=            -19.3668
   XY=             -3.7036   XZ=             -0.7310   YZ=              0.9205

 CCSD(T)/cc-pVDZ SP Nosymm\\PEscan\\0,1\C,0,-0.61432,-1.11173,-3.29193\
 CCSD(T)=-229.5773216\RMSD=6.119e-09\PG=C01 [X(C2H6O2)]\\@
 Normal termination of Gaussian 09 at Thu Dec 21 20:24:25 2017.
