 Gaussian 09, Revision D.01,
 Gaussian 09:  EM64L-G09RevD.01 24-Apr-2013

 ------------------------
 #P MP2/cc-pVQZ SP Nosymm
 ------------------------

 ------
 PEscan
 ------
 Symbolic Z-matrix:
 Charge =  0 Multiplicity = 1

                          Input orientation:
 ---------------------------------------------------------------------
 Center     Atomic      Atomic             Coordinates (Angstroms)
 Number     Number       Type             X           Y           Z
 ---------------------------------------------------------------------
      1          6           0       -0.541250   -1.100030   -3.429130
      2          6           0        0.012780   -0.129550   -2.396020
      3          8           0        0.977390   -0.732250   -1.538930
      4          8           0        0.202120   -1.470400   -0.543290
      5          1           0        0.557520   -2.359770   -0.709500
      6          1           0       -1.082900   -1.919650   -2.930620
      7          1           0        0.581100    0.681360   -2.884290
      8          1           0       -0.787320    0.324470   -1.786350
      9          1           0       -1.242550   -0.587310   -4.108410
     10          1           0        0.278270   -1.528990   -4.027890
 ---------------------------------------------------------------------

 SCF Done:  E(RHF) =  -228.942212539     A.U. after   13 cycles
 E2 =    -0.9026918569D+00 EUMP2 =    -0.22984490439642D+03

 Alpha  occ. eigenvalues --  -20.61903 -20.61874 -11.28385 -11.22461  -1.46539
 Alpha  occ. eigenvalues --   -1.22504  -1.00661  -0.83823  -0.71824  -0.66673
 Alpha  occ. eigenvalues --   -0.63680  -0.59419  -0.54874  -0.53955  -0.50417
 Alpha  occ. eigenvalues --   -0.48606  -0.44369
 Alpha virt. eigenvalues --    0.11315   0.13712   0.15503   0.16826   0.18668
 Alpha virt. eigenvalues --    0.20214   0.22642   0.26784   0.28132   0.29323
 Alpha virt. eigenvalues --    0.30583   0.35474   0.39885   0.44351   0.45270

 Mulliken charges:
               1
     1  C   -0.227517
     2  C    0.143745
     3  O   -0.239433
     4  O   -0.307297
     5  H    0.282917
     6  H    0.070573
     7  H    0.077871
     8  H    0.052900
     9  H    0.069564
    10  H    0.076677
 Sum of Mulliken charges =   0.00000

 Dipole moment (field-independent basis, Debye):
    X=             -0.6560    Y=             -0.7431    Z=             -1.4934  Tot=              1.7924
 Quadrupole moment (field-independent basis, Debye-Ang):
   XX=            -26.3808   YY=            -19.6342   ZZ=            -20.7295
   XY=             -0.9951   XZ=              1.0918   YZ=              0.4160

 Normal termination of Gaussian 09 at Thu Dec 21 17:22:35 2017.
