 Gaussian 09, Revision D.01,
 Gaussian 09:  EM64L-G09RevD.01 24-Apr-2013

 ------------------------
 #P MP2/cc-pVQZ SP Nosymm
 ------------------------

 ------
 PEscan
 ------
 Symbolic Z-matrix:
 Charge =  0 Multiplicity = 1

                          Input orientation:
 ---------------------------------------------------------------------
 Center     Atomic      Atomic             Coordinates (Angstroms)
 Number     Number       Type             X           Y           Z
 ---------------------------------------------------------------------
      1          6           0       -0.550910   -1.081570   -3.504560
      2          6           0        0.009680   -0.194140   -2.402020
      3          8           0        0.998110   -0.878600   -1.627640
      4          8           0        0.328480   -1.323340   -0.408430
      5          1           0        0.481960   -2.279270   -0.495320
      6          1           0       -1.076360   -1.949180   -3.072090
      7          1           0        0.540270    0.671020   -2.838350
      8          1           0       -0.773700    0.185240   -1.727700
      9          1           0       -1.266000   -0.521650   -4.130660
     10          1           0        0.263610   -1.450630   -4.147640
 ---------------------------------------------------------------------

 SCF Done:  E(RHF) =  -228.940152326     A.U. after   13 cycles
 E2 =    -0.9021003050D+00 EUMP2 =    -0.22984225263075D+03

 Alpha  occ. eigenvalues --  -20.61957 -20.61627 -11.28275 -11.22545  -1.46378
 Alpha  occ. eigenvalues --   -1.22353  -1.00574  -0.83940  -0.71522  -0.66697
 Alpha  occ. eigenvalues --   -0.64049  -0.58153  -0.55968  -0.54004  -0.49738
 Alpha  occ. eigenvalues --   -0.48981  -0.44088
 Alpha virt. eigenvalues --    0.11293   0.13543   0.15373   0.17041   0.18690
 Alpha virt. eigenvalues --    0.20413   0.22479   0.26338   0.28054   0.29211
 Alpha virt. eigenvalues --    0.30798   0.35313   0.38886   0.44950   0.45340

 Mulliken charges:
               1
     1  C   -0.214311
     2  C    0.139519
     3  O   -0.247374
     4  O   -0.303124
     5  H    0.282479
     6  H    0.064345
     7  H    0.073043
     8  H    0.058372
     9  H    0.067864
    10  H    0.079187
 Sum of Mulliken charges =   0.00000

 Dipole moment (field-independent basis, Debye):
    X=             -1.0633    Y=             -0.7624    Z=             -1.2336  Tot=              1.7982
 Quadrupole moment (field-independent basis, Debye-Ang):
   XX=            -26.8227   YY=            -19.7981   ZZ=            -21.2272
   XY=             -0.0048   XZ=              1.6038   YZ=             -0.3136

 Normal termination of Gaussian 09 at Thu Dec 21 17:09:43 2017.
