 Gaussian 09, Revision D.01,
 Gaussian 09:  EM64L-G09RevD.01 24-Apr-2013

 ----------------------------
 #P CCSD(T)/cc-pVDZ SP Nosymm
 ----------------------------

 ------
 PEscan
 ------
 Symbolic Z-matrix:
 Charge =  0 Multiplicity = 1

                          Input orientation:
 ---------------------------------------------------------------------
 Center     Atomic      Atomic             Coordinates (Angstroms)
 Number     Number       Type             X           Y           Z
 ---------------------------------------------------------------------
      1          6           0       -0.543150   -1.117010   -3.355230
      2          6           0        0.001680   -0.079120   -2.384530
      3          8           0        0.909470   -0.605780   -1.421080
      4          8           0        0.172030   -1.614890   -0.666720
      5          1           0        0.673280   -2.399530   -0.945100
      6          1           0       -1.166720   -1.851700   -2.826080
      7          1           0        0.616450    0.677250   -2.901530
      8          1           0       -0.828870    0.440000   -1.869430
      9          1           0       -1.161430   -0.625250   -4.124290
     10          1           0        0.282410   -1.646080   -3.860430
 ---------------------------------------------------------------------

 SCF Done:  E(RHF) =  -228.854091544     A.U. after   14 cycles
 E2 =    -0.6713098195D+00 EUMP2 =    -0.22952540136317D+03
 CCSD(T)
 CCSD(T)= -0.22958629050D+03

 Alpha  occ. eigenvalues --  -20.61893 -20.61861 -11.28911 -11.23244  -1.46590
 Alpha  occ. eigenvalues --   -1.22400  -1.00902  -0.83597  -0.71514  -0.66360
 Alpha  occ. eigenvalues --   -0.62829  -0.60398  -0.54090  -0.53450  -0.50622
 Alpha  occ. eigenvalues --   -0.47585  -0.44174
 Alpha virt. eigenvalues --    0.17582   0.20832   0.23660   0.24019   0.25421
 Alpha virt. eigenvalues --    0.26351   0.29521   0.37063   0.40021   0.59522
 Alpha virt. eigenvalues --    0.61665   0.65924   0.74294   0.77038   0.80524

 Mulliken charges:
               1
     1  C   -0.101910
     2  C    0.198120
     3  O   -0.307050
     4  O   -0.202235
     5  H    0.203843
     6  H    0.052620
     7  H    0.043214
     8  H    0.038228
     9  H    0.038335
    10  H    0.036834
 Sum of Mulliken charges =   0.00000

 Dipole moment (field-independent basis, Debye):
    X=             -0.3638    Y=             -0.7501    Z=             -1.8498  Tot=              2.0290
 Quadrupole moment (field-independent basis, Debye-Ang):
   XX=            -25.6449   YY=            -19.6227   ZZ=            -19.7872
   XY=             -1.8268   XZ=              0.5110   YZ=              1.2745

 CCSD(T)/cc-pVDZ SP Nosymm\\PEscan\\0,1\C,0,-0.54315,-1.11701,-3.35523\
 Normal termination of Gaussian 09 at Thu Dec 21 20:19:20 2017.
