 Gaussian 09, Revision D.01,
 Gaussian 09:  EM64L-G09RevD.01 24-Apr-2013

 ------------------------
 #P MP2/cc-pVQZ SP Nosymm
 ------------------------

 ------
 PEscan
 ------
 Symbolic Z-matrix:
 Charge =  0 Multiplicity = 1

                          Input orientation:
 ---------------------------------------------------------------------
 Center     Atomic      Atomic             Coordinates (Angstroms)
 Number     Number       Type             X           Y           Z
 ---------------------------------------------------------------------
      1          6           0       -0.688120   -1.096260   -3.315260
      2          6           0       -0.077300   -0.103960   -2.337440
      3          8           0        0.201670   -0.617650   -1.027190
      4          8           0        0.504080   -2.036650   -1.128000
      5          1           0        1.456200   -2.003960   -0.932630
      6          1           0       -1.591590   -1.562630   -2.891380
      7          1           0        0.854970    0.308440   -2.777140
      8          1           0       -0.759890    0.738590   -2.136590
      9          1           0       -0.968050   -0.556780   -4.235480
     10          1           0        0.023190   -1.891250   -3.573310
 ---------------------------------------------------------------------

 SCF Done:  E(RHF) =  -228.937429177     A.U. after   13 cycles
 E2 =    -0.9025635117D+00 EUMP2 =    -0.22983999268913D+03

 Alpha  occ. eigenvalues --  -20.61846 -20.61635 -11.28543 -11.22207  -1.46454
 Alpha  occ. eigenvalues --   -1.22102  -1.00765  -0.83488  -0.70840  -0.66713
 Alpha  occ. eigenvalues --   -0.65132  -0.58731  -0.54487  -0.53258  -0.50652
 Alpha  occ. eigenvalues --   -0.48007  -0.44117
 Alpha virt. eigenvalues --    0.10889   0.13973   0.14989   0.17301   0.18823
 Alpha virt. eigenvalues --    0.20701   0.22109   0.27430   0.28460   0.30638
 Alpha virt. eigenvalues --    0.31093   0.36761   0.37908   0.43793   0.44803

 Mulliken charges:
               1
     1  C   -0.218179
     2  C    0.138339
     3  O   -0.242384
     4  O   -0.297126
     5  H    0.276862
     6  H    0.081250
     7  H    0.031442
     8  H    0.070822
     9  H    0.071685
    10  H    0.087289
 Sum of Mulliken charges =   0.00000

 Dipole moment (field-independent basis, Debye):
    X=              1.1251    Y=              0.5336    Z=             -1.4435  Tot=              1.9064
 Quadrupole moment (field-independent basis, Debye-Ang):
   XX=            -21.3995   YY=            -25.9972   ZZ=            -20.7783
   XY=             -3.2892   XZ=             -0.4965   YZ=             -0.6220

 Normal termination of Gaussian 09 at Thu Dec 21 18:33:26 2017.
