 Gaussian 09, Revision D.01,
 Gaussian 09:  EM64L-G09RevD.01 24-Apr-2013

 ----------------------------
 #P CCSD(T)/cc-pVDZ SP Nosymm
 ----------------------------

 ------
 PEscan
 ------
 Symbolic Z-matrix:
 Charge =  0 Multiplicity = 1

                          Input orientation:
 ---------------------------------------------------------------------
 Center     Atomic      Atomic             Coordinates (Angstroms)
 Number     Number       Type             X           Y           Z
 ---------------------------------------------------------------------
      1          6           0       -0.580330   -1.119380   -3.298120
      2          6           0       -0.029110   -0.047880   -2.369300
      3          8           0        0.716080   -0.520410   -1.235630
      4          8           0        0.210090   -1.825570   -0.834370
      5          1           0        0.981340   -2.359170   -1.086130
      6          1           0       -1.339970   -1.730220   -2.793770
      7          1           0        0.688980    0.608520   -2.889980
      8          1           0       -0.868600    0.580290   -2.011270
      9          1           0       -1.041770   -0.624300   -4.168760
     10          1           0        0.218430   -1.783990   -3.667090
 ---------------------------------------------------------------------

 SCF Done:  E(RHF) =  -228.848659661     A.U. after   14 cycles
 E2 =    -0.6706858309D+00 EUMP2 =    -0.22951934549169D+03
 CCSD(T)
 CCSD(T)= -0.22958048149D+03

 Alpha  occ. eigenvalues --  -20.61825 -20.61471 -11.28943 -11.23392  -1.46297
 Alpha  occ. eigenvalues --   -1.21990  -1.01106  -0.83335  -0.71252  -0.66268
 Alpha  occ. eigenvalues --   -0.61964  -0.61508  -0.53762  -0.53083  -0.51011
 Alpha  occ. eigenvalues --   -0.47268  -0.43680
 Alpha virt. eigenvalues --    0.16961   0.21086   0.23724   0.24300   0.25615
 Alpha virt. eigenvalues --    0.26211   0.29073   0.36309   0.41838   0.59174
 Alpha virt. eigenvalues --    0.61646   0.66703   0.73942   0.75480   0.80590

 Mulliken charges:
               1
     1  C   -0.099293
     2  C    0.201478
     3  O   -0.320699
     4  O   -0.194035
     5  H    0.203553
     6  H    0.063164
     7  H    0.042138
     8  H    0.035485
     9  H    0.037780
    10  H    0.030428
 Sum of Mulliken charges =   0.00000

 Dipole moment (field-independent basis, Debye):
    X=              0.2580    Y=             -0.5014    Z=             -2.0613  Tot=              2.1370
 Quadrupole moment (field-independent basis, Debye-Ang):
   XX=            -23.9516   YY=            -21.2358   ZZ=            -19.1271
   XY=             -3.1400   XZ=             -0.4405   YZ=              1.5074

 CCSD(T)/cc-pVDZ SP Nosymm\\PEscan\\0,1\C,0,-0.58033,-1.11938,-3.29812\
 Normal termination of Gaussian 09 at Thu Dec 21 20:22:23 2017.
