 Gaussian 09, Revision D.01,
 Gaussian 09:  EM64L-G09RevD.01 24-Apr-2013

 ----------------------------
 #P CCSD(T)/cc-pVDZ SP Nosymm
 ----------------------------

 ------
 PEscan
 ------
 Symbolic Z-matrix:
 Charge =  0 Multiplicity = 1

                          Input orientation:
 ---------------------------------------------------------------------
 Center     Atomic      Atomic             Coordinates (Angstroms)
 Number     Number       Type             X           Y           Z
 ---------------------------------------------------------------------
      1          6           0       -0.566050   -1.016580   -3.683260
      2          6           0       -0.099470   -0.440490   -2.355710
      3          8           0        0.707570   -1.446930   -1.756010
      4          8           0        0.956890   -1.002650   -0.389160
      5          1           0        0.485060   -1.712630    0.077700
      6          1           0       -1.165400   -1.925530   -3.519130
      7          1           0        0.483270    0.489340   -2.493140
      8          1           0       -0.960360   -0.214530   -1.699880
      9          1           0       -1.182460   -0.276300   -4.217970
     10          1           0        0.296110   -1.275820   -4.317880
 ---------------------------------------------------------------------

 SCF Done:  E(RHF) =  -228.854532078     A.U. after   14 cycles
 E2 =    -0.6703637903D+00 EUMP2 =    -0.22952489586846D+03
 CCSD(T)
 CCSD(T)= -0.22958553404D+03

 Alpha  occ. eigenvalues --  -20.61824 -20.61696 -11.28739 -11.23372  -1.46558
 Alpha  occ. eigenvalues --   -1.22515  -1.00355  -0.83903  -0.71024  -0.65852
 Alpha  occ. eigenvalues --   -0.64610  -0.59427  -0.53955  -0.52983  -0.49696
 Alpha  occ. eigenvalues --   -0.48451  -0.44180
 Alpha virt. eigenvalues --    0.18353   0.19134   0.23490   0.24278   0.25981
 Alpha virt. eigenvalues --    0.28088   0.28962   0.36418   0.39921   0.59326
 Alpha virt. eigenvalues --    0.61585   0.67711   0.74399   0.76484   0.82511

 Mulliken charges:
               1
     1  C   -0.088388
     2  C    0.201580
     3  O   -0.317467
     4  O   -0.194130
     5  H    0.201459
     6  H    0.045146
     7  H    0.037374
     8  H    0.023998
     9  H    0.038416
    10  H    0.052011
 Sum of Mulliken charges =   0.00000

 Dipole moment (field-independent basis, Debye):
    X=             -1.9462    Y=             -0.0176    Z=             -0.1059  Tot=              1.9491
 Quadrupole moment (field-independent basis, Debye-Ang):
   XX=            -27.2664   YY=            -24.1677   ZZ=            -21.4191
   XY=              2.0822   XZ=              2.3166   YZ=             -3.0026

 CCSD(T)/cc-pVDZ SP Nosymm\\PEscan\\0,1\C,0,-0.56605,-1.01658,-3.68326\
 CCSD(T)=-229.585534\RMSD=5.703e-09\PG=C01 [X(C2H6O2)]\\@
 Normal termination of Gaussian 09 at Thu Dec 21 20:07:59 2017.
