 Gaussian 09, Revision D.01,
 Gaussian 09:  EM64L-G09RevD.01 24-Apr-2013

 ----------------------------
 #P CCSD(T)/cc-pVDZ SP Nosymm
 ----------------------------

 ------
 PEscan
 ------
 Symbolic Z-matrix:
 Charge =  0 Multiplicity = 1

                          Input orientation:
 ---------------------------------------------------------------------
 Center     Atomic      Atomic             Coordinates (Angstroms)
 Number     Number       Type             X           Y           Z
 ---------------------------------------------------------------------
      1          6           0       -0.647520   -1.105470   -3.296710
      2          6           0       -0.064320   -0.068670   -2.349120
      3          8           0        0.374080   -0.552140   -1.062420
      4          8           0        0.370310   -2.005510   -1.042760
      5          1           0        1.329760   -2.157770   -1.008890
      6          1           0       -1.507140   -1.623730   -2.846560
      7          1           0        0.800080    0.424080   -2.836910
      8          1           0       -0.813490    0.709510   -2.121860
      9          1           0       -0.985570   -0.583040   -4.207300
     10          1           0        0.098970   -1.859380   -3.581890
 ---------------------------------------------------------------------

 SCF Done:  E(RHF) =  -228.846160195     A.U. after   14 cycles
 E2 =    -0.6702625404D+00 EUMP2 =    -0.22951642273520D+03
 CCSD(T)
 CCSD(T)= -0.22957763222D+03

 Alpha  occ. eigenvalues --  -20.61860 -20.61213 -11.28876 -11.23192  -1.46167
 Alpha  occ. eigenvalues --   -1.21738  -1.00983  -0.83240  -0.70584  -0.66242
 Alpha  occ. eigenvalues --   -0.64107  -0.59163  -0.53672  -0.52966  -0.50749
 Alpha  occ. eigenvalues --   -0.47442  -0.43334
 Alpha virt. eigenvalues --    0.16887   0.21308   0.23373   0.24470   0.26079
 Alpha virt. eigenvalues --    0.26393   0.28571   0.36033   0.42807   0.59160
 Alpha virt. eigenvalues --    0.61974   0.67734   0.74061   0.75367   0.80822

 Mulliken charges:
               1
     1  C   -0.083178
     2  C    0.193883
     3  O   -0.324794
     4  O   -0.192152
     5  H    0.202842
     6  H    0.056515
     7  H    0.029004
     8  H    0.043190
     9  H    0.034984
    10  H    0.039707
 Sum of Mulliken charges =   0.00000

 Dipole moment (field-independent basis, Debye):
    X=              0.9799    Y=              0.0997    Z=             -1.7744  Tot=              2.0294
 Quadrupole moment (field-independent basis, Debye-Ang):
   XX=            -21.7758   YY=            -24.2353   ZZ=            -19.7711
   XY=             -3.8033   XZ=             -0.7987   YZ=              0.2650

 CCSD(T)/cc-pVDZ SP Nosymm\\PEscan\\0,1\C,0,-0.64752,-1.10547,-3.29671\
 CCSD(T)=-229.5776322\RMSD=5.387e-09\PG=C01 [X(C2H6O2)]\\@
 Normal termination of Gaussian 09 at Thu Dec 21 20:26:25 2017.
