 Gaussian 09, Revision D.01,
 Gaussian 09:  EM64L-G09RevD.01 24-Apr-2013

 ------------------------
 #P MP2/cc-pVQZ SP Nosymm
 ------------------------

 ------
 PEscan
 ------
 Symbolic Z-matrix:
 Charge =  0 Multiplicity = 1

                          Input orientation:
 ---------------------------------------------------------------------
 Center     Atomic      Atomic             Coordinates (Angstroms)
 Number     Number       Type             X           Y           Z
 ---------------------------------------------------------------------
      1          6           0       -0.630440   -1.108650   -3.292750
      2          6           0       -0.056890   -0.057650   -2.355030
      3          8           0        0.464680   -0.533570   -1.095190
      4          8           0        0.319360   -1.977070   -0.998040
      5          1           0        1.259290   -2.221180   -1.030740
      6          1           0       -1.470420   -1.646410   -2.830610
      7          1           0        0.770800    0.477780   -2.857980
      8          1           0       -0.836760    0.683720   -2.104110
      9          1           0       -0.993190   -0.593490   -4.197970
     10          1           0        0.128740   -1.845570   -3.592000
 ---------------------------------------------------------------------

 SCF Done:  E(RHF) =  -228.933630602     A.U. after   13 cycles
 E2 =    -0.9023001020D+00 EUMP2 =    -0.22983593070446D+03

 Alpha  occ. eigenvalues --  -20.61818 -20.61314 -11.28497 -11.22557  -1.46160
 Alpha  occ. eigenvalues --   -1.21793  -1.01018  -0.83278  -0.71187  -0.66608
 Alpha  occ. eigenvalues --   -0.63893  -0.60092  -0.53840  -0.53181  -0.51156
 Alpha  occ. eigenvalues --   -0.47965  -0.43715
 Alpha virt. eigenvalues --    0.10577   0.14083   0.15186   0.17211   0.18832
 Alpha virt. eigenvalues --    0.20904   0.21508   0.27023   0.28115   0.30430
 Alpha virt. eigenvalues --    0.31865   0.36600   0.37931   0.43596   0.44652

 Mulliken charges:
               1
     1  C   -0.218368
     2  C    0.142673
     3  O   -0.253733
     4  O   -0.290947
     5  H    0.277488
     6  H    0.090092
     7  H    0.050531
     8  H    0.055819
     9  H    0.077915
    10  H    0.068529
 Sum of Mulliken charges =   0.00000

 Dipole moment (field-independent basis, Debye):
    X=              0.7891    Y=             -0.0402    Z=             -1.8082  Tot=              1.9733
 Quadrupole moment (field-independent basis, Debye-Ang):
   XX=            -22.3449   YY=            -23.7518   ZZ=            -19.8998
   XY=             -3.6745   XZ=             -0.7756   YZ=              0.6257

 Normal termination of Gaussian 09 at Thu Dec 21 18:13:58 2017.
