 Gaussian 09, Revision D.01,
 Gaussian 09:  EM64L-G09RevD.01 24-Apr-2013

 ----------------------------
 #P CCSD(T)/cc-pVDZ SP Nosymm
 ----------------------------

 ------
 PEscan
 ------
 Symbolic Z-matrix:
 Charge =  0 Multiplicity = 1

                          Input orientation:
 ---------------------------------------------------------------------
 Center     Atomic      Atomic             Coordinates (Angstroms)
 Number     Number       Type             X           Y           Z
 ---------------------------------------------------------------------
      1          6           0       -0.922360   -0.996140   -3.478330
      2          6           0       -0.057080   -0.410580   -2.373290
      3          8           0       -0.020920   -1.322900   -1.265290
      4          8           0        1.366610   -1.704310   -1.047170
      5          1           0        1.509610   -1.265270   -0.191720
      6          1           0       -1.933820   -1.215090   -3.100450
      7          1           0        0.974390   -0.241910   -2.717910
      8          1           0       -0.468170    0.551790   -2.012640
      9          1           0       -1.012120   -0.284140   -4.316160
     10          1           0       -0.480980   -1.933570   -3.851460
 ---------------------------------------------------------------------

 SCF Done:  E(RHF) =  -228.850628655     A.U. after   14 cycles
 E2 =    -0.6699138742D+00 EUMP2 =    -0.22952054252876D+03
 CCSD(T)
 CCSD(T)= -0.22958150087D+03

 Alpha  occ. eigenvalues --  -20.61956 -20.61317 -11.28624 -11.22885  -1.46323
 Alpha  occ. eigenvalues --   -1.22072  -1.00265  -0.83822  -0.71305  -0.65022
 Alpha  occ. eigenvalues --   -0.63386  -0.60395  -0.54158  -0.52989  -0.49154
 Alpha  occ. eigenvalues --   -0.48092  -0.43860
 Alpha virt. eigenvalues --    0.18666   0.19264   0.23725   0.23858   0.26409
 Alpha virt. eigenvalues --    0.26635   0.29706   0.37173   0.39736   0.59481
 Alpha virt. eigenvalues --    0.60891   0.67117   0.74595   0.77162   0.80151

 Mulliken charges:
               1
     1  C   -0.073959
     2  C    0.180855
     3  O   -0.324122
     4  O   -0.190655
     5  H    0.201790
     6  H    0.045751
     7  H    0.047371
     8  H    0.033564
     9  H    0.030062
    10  H    0.049344
 Sum of Mulliken charges =   0.00000

 Dipole moment (field-independent basis, Debye):
    X=              0.2631    Y=              1.8936    Z=             -0.0451  Tot=              1.9124
 Quadrupole moment (field-independent basis, Debye-Ang):
   XX=            -24.3765   YY=            -29.7839   ZZ=            -21.2190
   XY=              0.7359   XZ=              2.1920   YZ=             -2.8910

 CCSD(T)/cc-pVDZ SP Nosymm\\PEscan\\0,1\C,0,-0.92236,-0.99614,-3.47833\
 9036\CCSD(T)=-229.5815009\RMSD=3.636e-09\PG=C01 [X(C2H6O2)]\\@
 Normal termination of Gaussian 09 at Thu Dec 21 20:37:39 2017.
