 Gaussian 09, Revision D.01,
 Gaussian 09:  EM64L-G09RevD.01 24-Apr-2013

 ----------------------------
 #P CCSD(T)/cc-pVDZ SP Nosymm
 ----------------------------

 ------
 PEscan
 ------
 Symbolic Z-matrix:
 Charge =  0 Multiplicity = 1

                          Input orientation:
 ---------------------------------------------------------------------
 Center     Atomic      Atomic             Coordinates (Angstroms)
 Number     Number       Type             X           Y           Z
 ---------------------------------------------------------------------
      1          6           0       -0.550910   -1.081570   -3.504560
      2          6           0        0.009680   -0.194140   -2.402020
      3          8           0        0.998110   -0.878600   -1.627640
      4          8           0        0.328480   -1.323340   -0.408430
      5          1           0        0.481960   -2.279270   -0.495320
      6          1           0       -1.076360   -1.949180   -3.072090
      7          1           0        0.540270    0.671020   -2.838350
      8          1           0       -0.773700    0.185240   -1.727700
      9          1           0       -1.266000   -0.521650   -4.130660
     10          1           0        0.263610   -1.450630   -4.147640
 ---------------------------------------------------------------------

 SCF Done:  E(RHF) =  -228.851942089     A.U. after   14 cycles
 E2 =    -0.6702992681D+00 EUMP2 =    -0.22952224135723D+03
 CCSD(T)
 CCSD(T)= -0.22958320920D+03

 Alpha  occ. eigenvalues --  -20.61922 -20.61508 -11.28635 -11.23239  -1.46299
 Alpha  occ. eigenvalues --   -1.22242  -1.00580  -0.83828  -0.71064  -0.66312
 Alpha  occ. eigenvalues --   -0.63648  -0.57888  -0.55634  -0.53721  -0.49329
 Alpha  occ. eigenvalues --   -0.48561  -0.43574
 Alpha virt. eigenvalues --    0.17896   0.19963   0.23269   0.23676   0.25926
 Alpha virt. eigenvalues --    0.27043   0.29449   0.37790   0.39356   0.59158
 Alpha virt. eigenvalues --    0.61419   0.65947   0.74643   0.78280   0.81030

 Mulliken charges:
               1
     1  C   -0.077713
     2  C    0.185811
     3  O   -0.317411
     4  O   -0.197720
     5  H    0.202304
     6  H    0.034760
     7  H    0.041447
     8  H    0.049812
     9  H    0.034357
    10  H    0.044354
 Sum of Mulliken charges =   0.00000

 Dipole moment (field-independent basis, Debye):
    X=             -1.1137    Y=             -0.8291    Z=             -1.2096  Tot=              1.8414
 Quadrupole moment (field-independent basis, Debye-Ang):
   XX=            -26.7272   YY=            -19.4824   ZZ=            -21.1562
   XY=             -0.0393   XZ=              1.6659   YZ=             -0.3509

 CCSD(T)/cc-pVDZ SP Nosymm\\PEscan\\0,1\C,0,-0.55091,-1.08157,-3.50456\
 Normal termination of Gaussian 09 at Thu Dec 21 20:15:13 2017.
