 Gaussian 09, Revision D.01,
 Gaussian 09:  EM64L-G09RevD.01 24-Apr-2013

 ------------------------
 #P MP2/cc-pVQZ SP Nosymm
 ------------------------

 ------
 PEscan
 ------
 Symbolic Z-matrix:
 Charge =  0 Multiplicity = 1

                          Input orientation:
 ---------------------------------------------------------------------
 Center     Atomic      Atomic             Coordinates (Angstroms)
 Number     Number       Type             X           Y           Z
 ---------------------------------------------------------------------
      1          6           0       -0.798080   -1.057730   -3.384700
      2          6           0       -0.097840   -0.221920   -2.324400
      3          8           0       -0.020950   -0.880040   -1.064360
      4          8           0        0.930060   -1.973840   -1.244610
      5          1           0        1.624140   -1.654350   -0.643790
      6          1           0       -1.808850   -1.333000   -3.044430
      7          1           0        0.914470    0.080410   -2.652160
      8          1           0       -0.676510    0.689060   -2.090400
      9          1           0       -0.882020   -0.490930   -4.327070
     10          1           0       -0.229280   -1.979780   -3.578500
 ---------------------------------------------------------------------

 SCF Done:  E(RHF) =  -228.942672257     A.U. after   12 cycles
 E2 =    -0.9027348975D+00 EUMP2 =    -0.22984540715422D+03

 Alpha  occ. eigenvalues --  -20.61955 -20.61869 -11.28469 -11.21897  -1.46657
 Alpha  occ. eigenvalues --   -1.22493  -1.00366  -0.83784  -0.71235  -0.66574
 Alpha  occ. eigenvalues --   -0.64725  -0.57648  -0.56572  -0.53319  -0.49435
 Alpha  occ. eigenvalues --   -0.48289  -0.44752
 Alpha virt. eigenvalues --    0.11595   0.13546   0.15458   0.16958   0.18886
 Alpha virt. eigenvalues --    0.20530   0.22806   0.27456   0.28112   0.30196
 Alpha virt. eigenvalues --    0.30754   0.34957   0.40017   0.44748   0.45651

 Mulliken charges:
               1
     1  C   -0.212536
     2  C    0.146677
     3  O   -0.239343
     4  O   -0.301046
     5  H    0.277269
     6  H    0.076844
     7  H    0.032099
     8  H    0.073003
     9  H    0.060153
    10  H    0.086881
 Sum of Mulliken charges =   0.00000

 Dipole moment (field-independent basis, Debye):
    X=              0.9800    Y=              1.3231    Z=             -0.6492  Tot=              1.7698
 Quadrupole moment (field-independent basis, Debye-Ang):
   XX=            -21.8209   YY=            -28.4531   ZZ=            -21.9558
   XY=             -1.3787   XZ=              0.9992   YZ=             -2.4363

 Normal termination of Gaussian 09 at Thu Dec 21 18:58:48 2017.
