 Gaussian 09, Revision D.01,
 Gaussian 09:  EM64L-G09RevD.01 24-Apr-2013

 ------------------------
 #P MP2/cc-pVQZ SP Nosymm
 ------------------------

 ------
 PEscan
 ------
 Symbolic Z-matrix:
 Charge =  0 Multiplicity = 1

                          Input orientation:
 ---------------------------------------------------------------------
 Center     Atomic      Atomic             Coordinates (Angstroms)
 Number     Number       Type             X           Y           Z
 ---------------------------------------------------------------------
      1          6           0       -0.713340   -1.089150   -3.329420
      2          6           0       -0.084140   -0.128070   -2.332150
      3          8           0        0.129060   -0.667490   -1.025060
      4          8           0        0.595930   -2.038770   -1.171790
      5          1           0        1.512730   -1.917430   -0.871080
      6          1           0       -1.646080   -1.514460   -2.925090
      7          1           0        0.875300    0.250600   -2.742950
      8          1           0       -0.736310    0.738480   -2.132140
      9          1           0       -0.948600   -0.541840   -4.257410
     10          1           0       -0.029400   -1.913990   -3.567360
 ---------------------------------------------------------------------

 SCF Done:  E(RHF) =  -228.939413960     A.U. after   12 cycles
 E2 =    -0.9027333230D+00 EUMP2 =    -0.22984214728291D+03

 Alpha  occ. eigenvalues --  -20.61848 -20.61785 -11.28551 -11.22058  -1.46560
 Alpha  occ. eigenvalues --   -1.22263  -1.00642  -0.83565  -0.70856  -0.66782
 Alpha  occ. eigenvalues --   -0.65196  -0.58363  -0.54991  -0.53273  -0.50352
 Alpha  occ. eigenvalues --   -0.48018  -0.44335
 Alpha virt. eigenvalues --    0.11073   0.13885   0.15044   0.17265   0.18841
 Alpha virt. eigenvalues --    0.20573   0.22422   0.27632   0.28500   0.30661
 Alpha virt. eigenvalues --    0.30883   0.36194   0.38429   0.44084   0.44902

 Mulliken charges:
               1
     1  C   -0.219969
     2  C    0.140507
     3  O   -0.238816
     4  O   -0.298076
     5  H    0.275570
     6  H    0.079667
     7  H    0.027908
     8  H    0.073140
     9  H    0.068590
    10  H    0.091480
 Sum of Mulliken charges =   0.00000

 Dipole moment (field-independent basis, Debye):
    X=              1.1575    Y=              0.7519    Z=             -1.2430  Tot=              1.8575
 Quadrupole moment (field-independent basis, Debye-Ang):
   XX=            -21.3130   YY=            -26.7260   ZZ=            -21.1633
   XY=             -2.9217   XZ=             -0.2045   YZ=             -1.1633

 Normal termination of Gaussian 09 at Thu Dec 21 18:39:43 2017.
