 Gaussian 09, Revision D.01,
 Gaussian 09:  EM64L-G09RevD.01 24-Apr-2013

 ----------------------------
 #P CCSD(T)/cc-pVDZ SP Nosymm
 ----------------------------

 ------
 PEscan
 ------
 Symbolic Z-matrix:
 Charge =  0 Multiplicity = 1

                          Input orientation:
 ---------------------------------------------------------------------
 Center     Atomic      Atomic             Coordinates (Angstroms)
 Number     Number       Type             X           Y           Z
 ---------------------------------------------------------------------
      1          6           0       -0.563910   -1.122030   -3.308340
      2          6           0       -0.018360   -0.052570   -2.373350
      3          8           0        0.789740   -0.533510   -1.293430
      4          8           0        0.190930   -1.756900   -0.776110
      5          1           0        0.865760   -2.385670   -1.080470
      6          1           0       -1.283730   -1.768690   -2.790010
      7          1           0        0.662820    0.639910   -2.896160
      8          1           0       -0.863340    0.537840   -1.966730
      9          1           0       -1.073010   -0.632130   -4.154840
     10          1           0        0.248270   -1.748360   -3.714990
 ---------------------------------------------------------------------

 SCF Done:  E(RHF) =  -228.850694713     A.U. after   14 cycles
 E2 =    -0.6709913826D+00 EUMP2 =    -0.22952168609567D+03
 CCSD(T)
 CCSD(T)= -0.22958272882D+03

 Alpha  occ. eigenvalues --  -20.61839 -20.61646 -11.28968 -11.23383  -1.46436
 Alpha  occ. eigenvalues --   -1.22153  -1.01090  -0.83440  -0.71393  -0.66315
 Alpha  occ. eigenvalues --   -0.62058  -0.61456  -0.53867  -0.53216  -0.50967
 Alpha  occ. eigenvalues --   -0.47271  -0.43944
 Alpha virt. eigenvalues --    0.17129   0.21017   0.23774   0.24191   0.25457
 Alpha virt. eigenvalues --    0.26175   0.29282   0.36539   0.41189   0.59264
 Alpha virt. eigenvalues --    0.61615   0.66387   0.74036   0.75892   0.80513

 Mulliken charges:
               1
     1  C   -0.104756
     2  C    0.201881
     3  O   -0.314986
     4  O   -0.196618
     5  H    0.203577
     6  H    0.061901
     7  H    0.043265
     8  H    0.035364
     9  H    0.038692
    10  H    0.031678
 Sum of Mulliken charges =   0.00000

 Dipole moment (field-independent basis, Debye):
    X=              0.0239    Y=             -0.6066    Z=             -2.0702  Tot=              2.1574
 Quadrupole moment (field-independent basis, Debye-Ang):
   XX=            -24.6205   YY=            -20.5688   ZZ=            -19.1566
   XY=             -2.6945   XZ=             -0.1649   YZ=              1.6507

 CCSD(T)/cc-pVDZ SP Nosymm\\PEscan\\0,1\C,0,-0.56391,-1.12203,-3.30834\
 4\CCSD(T)=-229.5827288\RMSD=3.549e-09\PG=C01 [X(C2H6O2)]\\@
 Normal termination of Gaussian 09 at Thu Dec 21 20:21:21 2017.
