 Gaussian 09, Revision D.01,
 Gaussian 09:  EM64L-G09RevD.01 24-Apr-2013

 ------------------------
 #P MP2/cc-pVQZ SP Nosymm
 ------------------------

 ------
 PEscan
 ------
 Symbolic Z-matrix:
 Charge =  0 Multiplicity = 1

                          Input orientation:
 ---------------------------------------------------------------------
 Center     Atomic      Atomic             Coordinates (Angstroms)
 Number     Number       Type             X           Y           Z
 ---------------------------------------------------------------------
      1          6           0       -0.826720   -1.044780   -3.408610
      2          6           0       -0.094430   -0.261180   -2.330130
      3          8           0       -0.045450   -0.962410   -1.090240
      4          8           0        1.036540   -1.934540   -1.221910
      5          1           0        1.634040   -1.567170   -0.549140
      6          1           0       -1.845050   -1.291820   -3.070060
      7          1           0        0.928290    0.015350   -2.641590
      8          1           0       -0.645560    0.662630   -2.077910
      9          1           0       -0.894120   -0.455160   -4.338400
     10          1           0       -0.292390   -1.983030   -3.626430
 ---------------------------------------------------------------------

 SCF Done:  E(RHF) =  -228.942155225     A.U. after   13 cycles
 E2 =    -0.9024342692D+00 EUMP2 =    -0.22984458949400D+03

 Alpha  occ. eigenvalues --  -20.61891 -20.61857 -11.28422 -11.21957  -1.46594
 Alpha  occ. eigenvalues --   -1.22453  -1.00331  -0.83850  -0.71315  -0.66323
 Alpha  occ. eigenvalues --   -0.64588  -0.58159  -0.56355  -0.53334  -0.49234
 Alpha  occ. eigenvalues --   -0.48469  -0.44672
 Alpha virt. eigenvalues --    0.11668   0.13394   0.15614   0.16893   0.18839
 Alpha virt. eigenvalues --    0.20523   0.22702   0.27136   0.28088   0.30094
 Alpha virt. eigenvalues --    0.30762   0.34805   0.39806   0.44730   0.45791

 Mulliken charges:
               1
     1  C   -0.207182
     2  C    0.143552
     3  O   -0.242380
     4  O   -0.302687
     5  H    0.279835
     6  H    0.076720
     7  H    0.037981
     8  H    0.072438
     9  H    0.059127
    10  H    0.082596
 Sum of Mulliken charges =   0.00000

 Dipole moment (field-independent basis, Debye):
    X=              0.8639    Y=              1.4724    Z=             -0.5098  Tot=              1.7817
 Quadrupole moment (field-independent basis, Debye-Ang):
   XX=            -22.2098   YY=            -28.8807   ZZ=            -21.9408
   XY=             -0.8379   XZ=              1.3856   YZ=             -2.6220

 Normal termination of Gaussian 09 at Thu Dec 21 19:05:02 2017.
