 Gaussian 09, Revision D.01,
 Gaussian 09:  EM64L-G09RevD.01 24-Apr-2013

 ------------------------
 #P MP2/cc-pVQZ SP Nosymm
 ------------------------

 ------
 PEscan
 ------
 Symbolic Z-matrix:
 Charge =  0 Multiplicity = 1

                          Input orientation:
 ---------------------------------------------------------------------
 Center     Atomic      Atomic             Coordinates (Angstroms)
 Number     Number       Type             X           Y           Z
 ---------------------------------------------------------------------
      1          6           0       -0.566120   -1.042450   -3.624680
      2          6           0       -0.026630   -0.328160   -2.394500
      3          8           0        0.887840   -1.216860   -1.744440
      4          8           0        0.674010   -1.084680   -0.306410
      5          1           0        0.441060   -2.009160   -0.119530
      6          1           0       -1.128990   -1.941800   -3.329560
      7          1           0        0.490700    0.612430   -2.661570
      8          1           0       -0.840690   -0.088070   -1.692320
      9          1           0       -1.233510   -0.373100   -4.192450
     10          1           0        0.257470   -1.350270   -4.288970
 ---------------------------------------------------------------------

 SCF Done:  E(RHF) =  -228.939376755     A.U. after   13 cycles
 E2 =    -0.9019654057D+00 EUMP2 =    -0.22984134216045D+03

 Alpha  occ. eigenvalues --  -20.61926 -20.61549 -11.28244 -11.22653  -1.46335
 Alpha  occ. eigenvalues --   -1.22387  -1.00422  -0.83971  -0.70910  -0.66947
 Alpha  occ. eigenvalues --   -0.64875  -0.58128  -0.55260  -0.54044  -0.49437
 Alpha  occ. eigenvalues --   -0.49114  -0.44164
 Alpha virt. eigenvalues --    0.11205   0.13216   0.15462   0.17306   0.18849
 Alpha virt. eigenvalues --    0.20600   0.22495   0.26652   0.27790   0.29087
 Alpha virt. eigenvalues --    0.31048   0.35133   0.37185   0.44934   0.46397

 Mulliken charges:
               1
     1  C   -0.202781
     2  C    0.146801
     3  O   -0.250176
     4  O   -0.295742
     5  H    0.276676
     6  H    0.071431
     7  H    0.056233
     8  H    0.055208
     9  H    0.064325
    10  H    0.078025
 Sum of Mulliken charges =   0.00000

 Dipole moment (field-independent basis, Debye):
    X=             -1.6698    Y=             -0.5114    Z=             -0.6257  Tot=              1.8550
 Quadrupole moment (field-independent basis, Debye-Ang):
   XX=            -27.1507   YY=            -21.7402   ZZ=            -21.7188
   XY=              1.5821   XZ=              2.1072   YZ=             -2.0073

 Normal termination of Gaussian 09 at Thu Dec 21 16:44:49 2017.
