 Gaussian 09, Revision D.01,
 Gaussian 09:  EM64L-G09RevD.01 24-Apr-2013

 ----------------------------
 #P CCSD(T)/cc-pVDZ SP Nosymm
 ----------------------------

 ------
 PEscan
 ------
 Symbolic Z-matrix:
 Charge =  0 Multiplicity = 1

                          Input orientation:
 ---------------------------------------------------------------------
 Center     Atomic      Atomic             Coordinates (Angstroms)
 Number     Number       Type             X           Y           Z
 ---------------------------------------------------------------------
      1          6           0       -0.566120   -1.042450   -3.624680
      2          6           0       -0.026630   -0.328160   -2.394500
      3          8           0        0.887840   -1.216860   -1.744440
      4          8           0        0.674010   -1.084680   -0.306410
      5          1           0        0.441060   -2.009160   -0.119530
      6          1           0       -1.128990   -1.941800   -3.329560
      7          1           0        0.490700    0.612430   -2.661570
      8          1           0       -0.840690   -0.088070   -1.692320
      9          1           0       -1.233510   -0.373100   -4.192450
     10          1           0        0.257470   -1.350270   -4.288970
 ---------------------------------------------------------------------

 SCF Done:  E(RHF) =  -228.850935862     A.U. after   14 cycles
 E2 =    -0.6701522589D+00 EUMP2 =    -0.22952108812118D+03
 CCSD(T)
 CCSD(T)= -0.22958196189D+03

 Alpha  occ. eigenvalues --  -20.61877 -20.61390 -11.28600 -11.23347  -1.46232
 Alpha  occ. eigenvalues --   -1.22263  -1.00414  -0.83851  -0.70422  -0.66592
 Alpha  occ. eigenvalues --   -0.64454  -0.57731  -0.54993  -0.53789  -0.49034
 Alpha  occ. eigenvalues --   -0.48628  -0.43640
 Alpha virt. eigenvalues --    0.18360   0.19246   0.23436   0.23933   0.26176
 Alpha virt. eigenvalues --    0.26963   0.29517   0.36884   0.39474   0.59333
 Alpha virt. eigenvalues --    0.61058   0.66741   0.74584   0.77069   0.81963

 Mulliken charges:
               1
     1  C   -0.082214
     2  C    0.194730
     3  O   -0.326085
     4  O   -0.190541
     5  H    0.201449
     6  H    0.039495
     7  H    0.037988
     8  H    0.041137
     9  H    0.035190
    10  H    0.048849
 Sum of Mulliken charges =   0.00000

 Dipole moment (field-independent basis, Debye):
    X=             -1.7362    Y=             -0.5426    Z=             -0.5635  Tot=              1.9043
 Quadrupole moment (field-independent basis, Debye-Ang):
   XX=            -27.0877   YY=            -21.5060   ZZ=            -21.6930
   XY=              1.5496   XZ=              2.2242   YZ=             -2.1062

 CCSD(T)/cc-pVDZ SP Nosymm\\PEscan\\0,1\C,0,-0.56612,-1.04245,-3.62468\
 Normal termination of Gaussian 09 at Thu Dec 21 20:11:08 2017.
