 Gaussian 09, Revision D.01,
 Gaussian 09:  EM64L-G09RevD.01 24-Apr-2013

 ------------------------
 #P MP2/cc-pVQZ SP Nosymm
 ------------------------

 ------
 PEscan
 ------
 Symbolic Z-matrix:
 Charge =  0 Multiplicity = 1

                          Input orientation:
 ---------------------------------------------------------------------
 Center     Atomic      Atomic             Coordinates (Angstroms)
 Number     Number       Type             X           Y           Z
 ---------------------------------------------------------------------
      1          6           0       -0.551350   -1.121390   -3.327210
      2          6           0       -0.007990   -0.062770   -2.378360
      3          8           0        0.855450   -0.561590   -1.356620
      4          8           0        0.178710   -1.686460   -0.721510
      5          1           0        0.760800   -2.399270   -1.033000
      6          1           0       -1.225850   -1.809380   -2.799860
      7          1           0        0.637720    0.663200   -2.900720
      8          1           0       -0.849500    0.490870   -1.917680
      9          1           0       -1.113230   -0.632630   -4.140200
     10          1           0        0.270390   -1.702690   -3.779270
 ---------------------------------------------------------------------

 SCF Done:  E(RHF) =  -228.940388202     A.U. after   13 cycles
 E2 =    -0.9028463833D+00 EUMP2 =    -0.22984323458520D+03

 Alpha  occ. eigenvalues --  -20.61886 -20.61789 -11.28581 -11.22610  -1.46559
 Alpha  occ. eigenvalues --   -1.22361  -1.00997  -0.83611  -0.71891  -0.66725
 Alpha  occ. eigenvalues --   -0.62857  -0.61220  -0.54179  -0.53655  -0.51128
 Alpha  occ. eigenvalues --   -0.47861  -0.44596
 Alpha virt. eigenvalues --    0.10888   0.13756   0.15765   0.16662   0.18683
 Alpha virt. eigenvalues --    0.19839   0.22599   0.27349   0.28201   0.29968
 Alpha virt. eigenvalues --    0.31112   0.36381   0.38286   0.43479   0.45145

 Mulliken charges:
               1
     1  C   -0.237401
     2  C    0.149977
     3  O   -0.236365
     4  O   -0.307217
     5  H    0.283323
     6  H    0.091592
     7  H    0.077600
     8  H    0.041012
     9  H    0.075651
    10  H    0.061828
 Sum of Mulliken charges =   0.00000

 Dipole moment (field-independent basis, Debye):
    X=             -0.1857    Y=             -0.6194    Z=             -1.9651  Tot=              2.0687
 Quadrupole moment (field-independent basis, Debye-Ang):
   XX=            -25.3473   YY=            -20.3551   ZZ=            -19.6066
   XY=             -2.1898   XZ=              0.1379   YZ=              1.5616

 Normal termination of Gaussian 09 at Thu Dec 21 17:41:49 2017.
