 Gaussian 09, Revision D.01,
 Gaussian 09:  EM64L-G09RevD.01 24-Apr-2013

 ----------------------------
 #P CCSD(T)/cc-pVDZ SP Nosymm
 ----------------------------

 ------
 PEscan
 ------
 Symbolic Z-matrix:
 Charge =  0 Multiplicity = 1

                          Input orientation:
 ---------------------------------------------------------------------
 Center     Atomic      Atomic             Coordinates (Angstroms)
 Number     Number       Type             X           Y           Z
 ---------------------------------------------------------------------
      1          6           0       -0.630440   -1.108650   -3.292750
      2          6           0       -0.056890   -0.057650   -2.355030
      3          8           0        0.464680   -0.533570   -1.095190
      4          8           0        0.319360   -1.977070   -0.998040
      5          1           0        1.259290   -2.221180   -1.030740
      6          1           0       -1.470420   -1.646410   -2.830610
      7          1           0        0.770800    0.477780   -2.857980
      8          1           0       -0.836760    0.683720   -2.104110
      9          1           0       -0.993190   -0.593490   -4.197970
     10          1           0        0.128740   -1.845570   -3.592000
 ---------------------------------------------------------------------

 SCF Done:  E(RHF) =  -228.845558464     A.U. after   14 cycles
 E2 =    -0.6701873037D+00 EUMP2 =    -0.22951574576807D+03
 CCSD(T)
 CCSD(T)= -0.22957699802D+03

 Alpha  occ. eigenvalues --  -20.61847 -20.61161 -11.28869 -11.23285  -1.46101
 Alpha  occ. eigenvalues --   -1.21694  -1.01045  -0.83198  -0.70738  -0.66220
 Alpha  occ. eigenvalues --   -0.63589  -0.59682  -0.53605  -0.52941  -0.50846
 Alpha  occ. eigenvalues --   -0.47420  -0.43269
 Alpha virt. eigenvalues --    0.16806   0.21280   0.23503   0.24466   0.25994
 Alpha virt. eigenvalues --    0.26326   0.28560   0.35939   0.42920   0.59120
 Alpha virt. eigenvalues --    0.61932   0.67701   0.73971   0.75198   0.80801

 Mulliken charges:
               1
     1  C   -0.085324
     2  C    0.196553
     3  O   -0.327797
     4  O   -0.191322
     5  H    0.203340
     6  H    0.058719
     7  H    0.033143
     8  H    0.041083
     9  H    0.035522
    10  H    0.036082
 Sum of Mulliken charges =   0.00000

 Dipole moment (field-independent basis, Debye):
    X=              0.8323    Y=             -0.0771    Z=             -1.8655  Tot=              2.0442
 Quadrupole moment (field-independent basis, Debye-Ang):
   XX=            -22.1894   YY=            -23.4783   ZZ=            -19.5358
   XY=             -3.8041   XZ=             -0.7920   YZ=              0.6151

 CCSD(T)/cc-pVDZ SP Nosymm\\PEscan\\0,1\C,0,-0.63044,-1.10865,-3.29275\
 Normal termination of Gaussian 09 at Thu Dec 21 20:25:25 2017.
