 Gaussian 09, Revision D.01,
 Gaussian 09:  EM64L-G09RevD.01 24-Apr-2013

 ------------------------
 #P MP2/cc-pVQZ SP Nosymm
 ------------------------

 ------
 PEscan
 ------
 Symbolic Z-matrix:
 Charge =  0 Multiplicity = 1

                          Input orientation:
 ---------------------------------------------------------------------
 Center     Atomic      Atomic             Coordinates (Angstroms)
 Number     Number       Type             X           Y           Z
 ---------------------------------------------------------------------
      1          6           0       -0.769800   -1.069700   -3.363570
      2          6           0       -0.096840   -0.186470   -2.324090
      3          8           0        0.018850   -0.801340   -1.045020
      4          8           0        0.819860   -2.005640   -1.242550
      5          1           0        1.598700   -1.743200   -0.723360
      6          1           0       -1.763140   -1.388370   -3.008970
      7          1           0        0.901330    0.140230   -2.677120
      8          1           0       -0.699860    0.711560   -2.104870
      9          1           0       -0.892030   -0.514030   -4.308220
     10          1           0       -0.161910   -1.965140   -3.556640
 ---------------------------------------------------------------------

 SCF Done:  E(RHF) =  -228.942343341     A.U. after   12 cycles
 E2 =    -0.9028968699D+00 EUMP2 =    -0.22984524021097D+03

 Alpha  occ. eigenvalues --  -20.61969 -20.61857 -11.28507 -11.21880  -1.46668
 Alpha  occ. eigenvalues --   -1.22477  -1.00428  -0.83700  -0.71125  -0.66733
 Alpha  occ. eigenvalues --   -0.64880  -0.57693  -0.56226  -0.53294  -0.49723
 Alpha  occ. eigenvalues --   -0.48136  -0.44692
 Alpha virt. eigenvalues --    0.11465   0.13685   0.15301   0.17053   0.18908
 Alpha virt. eigenvalues --    0.20505   0.22828   0.27732   0.28201   0.30415
 Alpha virt. eigenvalues --    0.30719   0.35202   0.39718   0.44718   0.45344

 Mulliken charges:
               1
     1  C   -0.217548
     2  C    0.146899
     3  O   -0.237568
     4  O   -0.299121
     5  H    0.275010
     6  H    0.077557
     7  H    0.028173
     8  H    0.073609
     9  H    0.062305
    10  H    0.090684
 Sum of Mulliken charges =   0.00000

 Dipole moment (field-independent basis, Debye):
    X=              1.0674    Y=              1.1496    Z=             -0.8118  Tot=              1.7664
 Quadrupole moment (field-independent basis, Debye-Ang):
   XX=            -21.5530   YY=            -27.9426   ZZ=            -21.8251
   XY=             -1.9225   XZ=              0.6036   YZ=             -2.1381

 Normal termination of Gaussian 09 at Thu Dec 21 18:52:28 2017.
