 Gaussian 09, Revision D.01,
 Gaussian 09:  EM64L-G09RevD.01 24-Apr-2013

 ----------------------------
 #P CCSD(T)/cc-pVDZ SP Nosymm
 ----------------------------

 ------
 PEscan
 ------
 Symbolic Z-matrix:
 Charge =  0 Multiplicity = 1

                          Input orientation:
 ---------------------------------------------------------------------
 Center     Atomic      Atomic             Coordinates (Angstroms)
 Number     Number       Type             X           Y           Z
 ---------------------------------------------------------------------
      1          6           0       -0.567220   -1.033800   -3.646360
      2          6           0       -0.045580   -0.364760   -2.383850
      3          8           0        0.837000   -1.296930   -1.758050
      4          8           0        0.772440   -1.045940   -0.321620
      5          1           0        0.442020   -1.917450   -0.047350
      6          1           0       -1.142860   -1.936920   -3.390990
      7          1           0        0.486290    0.579590   -2.606050
      8          1           0       -0.874660   -0.140180   -1.692310
      9          1           0       -1.218110   -0.339220   -4.202210
     10          1           0        0.265810   -1.326510   -4.305630
 ---------------------------------------------------------------------

 SCF Done:  E(RHF) =  -228.852137175     A.U. after   14 cycles
 E2 =    -0.6702559133D+00 EUMP2 =    -0.22952239308819D+03
 CCSD(T)
 CCSD(T)= -0.22958317647D+03

 Alpha  occ. eigenvalues --  -20.61846 -20.61501 -11.28650 -11.23374  -1.46338
 Alpha  occ. eigenvalues --   -1.22363  -1.00392  -0.83869  -0.70550  -0.66374
 Alpha  occ. eigenvalues --   -0.64662  -0.58298  -0.54369  -0.53763  -0.49211
 Alpha  occ. eigenvalues --   -0.48527  -0.43851
 Alpha virt. eigenvalues --    0.18368   0.19231   0.23452   0.24059   0.26070
 Alpha virt. eigenvalues --    0.27271   0.29392   0.36678   0.39587   0.59320
 Alpha virt. eigenvalues --    0.61251   0.67037   0.74557   0.76775   0.82553

 Mulliken charges:
               1
     1  C   -0.084919
     2  C    0.198302
     3  O   -0.323482
     4  O   -0.191572
     5  H    0.201373
     6  H    0.041608
     7  H    0.037328
     8  H    0.034899
     9  H    0.036429
    10  H    0.050033
 Sum of Mulliken charges =   0.00000

 Dipole moment (field-independent basis, Debye):
    X=             -1.8477    Y=             -0.3975    Z=             -0.4125  Tot=              1.9345
 Quadrupole moment (field-independent basis, Debye-Ang):
   XX=            -27.1573   YY=            -22.3223   ZZ=            -21.6366
   XY=              1.8247   XZ=              2.2662   YZ=             -2.4584

 CCSD(T)/cc-pVDZ SP Nosymm\\PEscan\\0,1\C,0,-0.56722,-1.0338,-3.64636\C
 CCSD(T)=-229.5831765\RMSD=5.613e-09\PG=C01 [X(C2H6O2)]\\@
 Normal termination of Gaussian 09 at Thu Dec 21 20:10:07 2017.
