 Gaussian 09, Revision D.01,
 Gaussian 09:  EM64L-G09RevD.01 24-Apr-2013

 ----------------------------
 #P CCSD(T)/cc-pVDZ SP Nosymm
 ----------------------------

 ------
 PEscan
 ------
 Symbolic Z-matrix:
 Charge =  0 Multiplicity = 1

                          Input orientation:
 ---------------------------------------------------------------------
 Center     Atomic      Atomic             Coordinates (Angstroms)
 Number     Number       Type             X           Y           Z
 ---------------------------------------------------------------------
      1          6           0       -0.713340   -1.089150   -3.329420
      2          6           0       -0.084140   -0.128070   -2.332150
      3          8           0        0.129060   -0.667490   -1.025060
      4          8           0        0.595930   -2.038770   -1.171790
      5          1           0        1.512730   -1.917430   -0.871080
      6          1           0       -1.646080   -1.514460   -2.925090
      7          1           0        0.875300    0.250600   -2.742950
      8          1           0       -0.736310    0.738480   -2.132140
      9          1           0       -0.948600   -0.541840   -4.257410
     10          1           0       -0.029400   -1.913990   -3.567360
 ---------------------------------------------------------------------

 SCF Done:  E(RHF) =  -228.851443212     A.U. after   14 cycles
 E2 =    -0.6708698532D+00 EUMP2 =    -0.22952231306559D+03
 CCSD(T)
 CCSD(T)= -0.22958325223D+03

 Alpha  occ. eigenvalues --  -20.61865 -20.61667 -11.28927 -11.22733  -1.46516
 Alpha  occ. eigenvalues --   -1.22178  -1.00631  -0.83453  -0.70400  -0.66449
 Alpha  occ. eigenvalues --   -0.64842  -0.57942  -0.54694  -0.53031  -0.50032
 Alpha  occ. eigenvalues --   -0.47506  -0.43868
 Alpha virt. eigenvalues --    0.17557   0.21185   0.23011   0.24395   0.26341
 Alpha virt. eigenvalues --    0.26371   0.29418   0.36864   0.41289   0.59577
 Alpha virt. eigenvalues --    0.61882   0.66857   0.74240   0.76564   0.80908

 Mulliken charges:
               1
     1  C   -0.082570
     2  C    0.187677
     3  O   -0.309771
     4  O   -0.197803
     5  H    0.201832
     6  H    0.049459
     7  H    0.020021
     8  H    0.044562
     9  H    0.032764
    10  H    0.053828
 Sum of Mulliken charges =   0.00000

 Dipole moment (field-independent basis, Debye):
    X=              1.2380    Y=              0.7385    Z=             -1.2682  Tot=              1.9200
 Quadrupole moment (field-independent basis, Debye-Ang):
   XX=            -21.1357   YY=            -26.5285   ZZ=            -20.8811
   XY=             -3.1101   XZ=             -0.3168   YZ=             -1.1920

 CCSD(T)/cc-pVDZ SP Nosymm\\PEscan\\0,1\C,0,-0.71334,-1.08915,-3.32942\
 CCSD(T)=-229.5832522\RMSD=4.257e-09\PG=C01 [X(C2H6O2)]\\@
 Normal termination of Gaussian 09 at Thu Dec 21 20:29:29 2017.
