 Gaussian 09, Revision D.01,
 Gaussian 09:  EM64L-G09RevD.01 24-Apr-2013

 ----------------------------
 #P CCSD(T)/cc-pVDZ SP Nosymm
 ----------------------------

 ------
 PEscan
 ------
 Symbolic Z-matrix:
 Charge =  0 Multiplicity = 1

                          Input orientation:
 ---------------------------------------------------------------------
 Center     Atomic      Atomic             Coordinates (Angstroms)
 Number     Number       Type             X           Y           Z
 ---------------------------------------------------------------------
      1          6           0       -0.666450   -1.101550   -3.304210
      2          6           0       -0.070990   -0.084070   -2.343180
      3          8           0        0.284960   -0.579700   -1.039600
      4          8           0        0.430560   -2.025210   -1.085520
      5          1           0        1.395060   -2.085030   -0.977550
      6          1           0       -1.546340   -1.597370   -2.866120
      7          1           0        0.828890    0.367100   -2.809490
      8          1           0       -0.786850    0.728430   -2.132830
      9          1           0       -0.978540   -0.570900   -4.219260
     10          1           0        0.064840   -1.873810   -3.576660
 ---------------------------------------------------------------------

 SCF Done:  E(RHF) =  -228.847523959     A.U. after   14 cycles
 E2 =    -0.6704362380D+00 EUMP2 =    -0.22951796019731D+03
 CCSD(T)
 CCSD(T)= -0.22957909265D+03

 Alpha  occ. eigenvalues --  -20.61867 -20.61336 -11.28895 -11.23060  -1.46279
 Alpha  occ. eigenvalues --   -1.21854  -1.00887  -0.83308  -0.70458  -0.66291
 Alpha  occ. eigenvalues --   -0.64531  -0.58709  -0.53863  -0.52997  -0.50585
 Alpha  occ. eigenvalues --   -0.47462  -0.43471
 Alpha virt. eigenvalues --    0.17049   0.21309   0.23227   0.24453   0.26174
 Alpha virt. eigenvalues --    0.26425   0.28720   0.36251   0.42452   0.59240
 Alpha virt. eigenvalues --    0.61976   0.67592   0.74151   0.75650   0.80842

 Mulliken charges:
               1
     1  C   -0.081984
     2  C    0.191122
     3  O   -0.319898
     4  O   -0.193734
     5  H    0.202314
     6  H    0.054200
     7  H    0.025064
     8  H    0.044563
     9  H    0.034375
    10  H    0.043979
 Sum of Mulliken charges =   0.00000

 Dipole moment (field-independent basis, Debye):
    X=              1.1055    Y=              0.2982    Z=             -1.6482  Tot=              2.0069
 Quadrupole moment (field-independent basis, Debye-Ang):
   XX=            -21.4547   YY=            -25.0058   ZZ=            -20.0813
   XY=             -3.6953   XZ=             -0.7367   YZ=             -0.1530

 CCSD(T)/cc-pVDZ SP Nosymm\\PEscan\\0,1\C,0,-0.66645,-1.10155,-3.30421\
 Normal termination of Gaussian 09 at Thu Dec 21 20:27:25 2017.
