 Gaussian 09, Revision D.01,
 Gaussian 09:  EM64L-G09RevD.01 24-Apr-2013

 ------------------------
 #P MP2/cc-pVQZ SP Nosymm
 ------------------------

 ------
 PEscan
 ------
 Symbolic Z-matrix:
 Charge =  0 Multiplicity = 1

                          Input orientation:
 ---------------------------------------------------------------------
 Center     Atomic      Atomic             Coordinates (Angstroms)
 Number     Number       Type             X           Y           Z
 ---------------------------------------------------------------------
      1          6           0       -0.563130   -1.008300   -3.697870
      2          6           0       -0.135970   -0.473420   -2.340360
      3          8           0        0.625310   -1.511270   -1.736910
      4          8           0        1.034680   -0.997530   -0.434900
      5          1           0        0.540910   -1.618580    0.126750
      6          1           0       -1.174540   -1.916850   -3.581410
      7          1           0        0.480450    0.438570   -2.440350
      8          1           0       -1.013040   -0.230210   -1.710680
      9          1           0       -1.158330   -0.248920   -4.229640
     10          1           0        0.318820   -1.255610   -4.309040
 ---------------------------------------------------------------------

 SCF Done:  E(RHF) =  -228.943653926     A.U. after   13 cycles
 E2 =    -0.9021808792D+00 EUMP2 =    -0.22984583480491D+03

 Alpha  occ. eigenvalues --  -20.61907 -20.61869 -11.28381 -11.22644  -1.46701
 Alpha  occ. eigenvalues --   -1.22656  -1.00344  -0.84016  -0.71709  -0.66112
 Alpha  occ. eigenvalues --   -0.64665  -0.60303  -0.54155  -0.52781  -0.50305
 Alpha  occ. eigenvalues --   -0.49036  -0.44716
 Alpha virt. eigenvalues --    0.11231   0.13012   0.15878   0.17178   0.18766
 Alpha virt. eigenvalues --    0.20923   0.22909   0.26912   0.27251   0.30408
 Alpha virt. eigenvalues --    0.31189   0.35958   0.37210   0.45359   0.46195

 Mulliken charges:
               1
     1  C   -0.213927
     2  C    0.176068
     3  O   -0.239157
     4  O   -0.308600
     5  H    0.281544
     6  H    0.077463
     7  H    0.049277
     8  H    0.026519
     9  H    0.066034
    10  H    0.084780
 Sum of Mulliken charges =   0.00000

 Dipole moment (field-independent basis, Debye):
    X=             -1.8550    Y=              0.1689    Z=             -0.0444  Tot=              1.8633
 Quadrupole moment (field-independent basis, Debye-Ang):
   XX=            -27.3114   YY=            -25.1800   ZZ=            -21.2713
   XY=              2.0254   XZ=              2.2221   YZ=             -3.0421

 Normal termination of Gaussian 09 at Thu Dec 21 16:20:21 2017.
