 Gaussian 09, Revision D.01,
 Gaussian 09:  EM64L-G09RevD.01 24-Apr-2013

 ------------------------
 #P MP2/cc-pVQZ SP Nosymm
 ------------------------

 ------
 PEscan
 ------
 Symbolic Z-matrix:
 Charge =  0 Multiplicity = 1

                          Input orientation:
 ---------------------------------------------------------------------
 Center     Atomic      Atomic             Coordinates (Angstroms)
 Number     Number       Type             X           Y           Z
 ---------------------------------------------------------------------
      1          6           0       -0.965500   -0.976420   -3.482640
      2          6           0        0.020750   -0.494490   -2.430840
      3          8           0        0.121020   -1.533700   -1.457170
      4          8           0        1.466170   -1.464210   -0.904530
      5          1           0        1.246570   -1.183280    0.000060
      6          1           0       -1.942610   -1.206510   -3.028030
      7          1           0        1.015290   -0.333060   -2.878150
      8          1           0       -0.306750    0.452900   -1.958210
      9          1           0       -1.115890   -0.196110   -4.246460
     10          1           0       -0.583900   -1.887240   -3.968450
 ---------------------------------------------------------------------

 SCF Done:  E(RHF) =  -228.941676238     A.U. after   12 cycles
 E2 =    -0.9019374455D+00 EUMP2 =    -0.22984361368324D+03

 Alpha  occ. eigenvalues --  -20.61941 -20.61706 -11.28299 -11.22476  -1.46595
 Alpha  occ. eigenvalues --   -1.22463  -1.00295  -0.83962  -0.72038  -0.65893
 Alpha  occ. eigenvalues --   -0.62949  -0.61773  -0.54081  -0.52500  -0.50215
 Alpha  occ. eigenvalues --   -0.48924  -0.44581
 Alpha virt. eigenvalues --    0.11408   0.12860   0.16151   0.17133   0.18829
 Alpha virt. eigenvalues --    0.20821   0.22677   0.26991   0.27454   0.30170
 Alpha virt. eigenvalues --    0.30874   0.35046   0.37217   0.45469   0.46627

 Mulliken charges:
               1
     1  C   -0.208774
     2  C    0.161530
     3  O   -0.245059
     4  O   -0.301744
     5  H    0.281257
     6  H    0.074841
     7  H    0.058185
     8  H    0.031976
     9  H    0.062089
    10  H    0.085699
 Sum of Mulliken charges =   0.00000

 Dipole moment (field-independent basis, Debye):
    X=             -0.5886    Y=              1.7035    Z=              0.1350  Tot=              1.8074
 Quadrupole moment (field-independent basis, Debye-Ang):
   XX=            -26.6039   YY=            -29.5954   ZZ=            -20.5962
   XY=              1.4176   XZ=              2.4057   YZ=             -2.6998

 Normal termination of Gaussian 09 at Thu Dec 21 19:47:41 2017.
