 Gaussian 09, Revision D.01,
 Gaussian 09:  EM64L-G09RevD.01 24-Apr-2013

 ----------------------------
 #P CCSD(T)/cc-pVDZ SP Nosymm
 ----------------------------

 ------
 PEscan
 ------
 Symbolic Z-matrix:
 Charge =  0 Multiplicity = 1

                          Input orientation:
 ---------------------------------------------------------------------
 Center     Atomic      Atomic             Coordinates (Angstroms)
 Number     Number       Type             X           Y           Z
 ---------------------------------------------------------------------
      1          6           0       -0.545890   -1.090450   -3.468110
      2          6           0        0.012260   -0.161280   -2.399560
      3          8           0        0.992710   -0.804090   -1.586650
      4          8           0        0.253940   -1.397120   -0.473700
      5          1           0        0.520530   -2.323900   -0.596130
      6          1           0       -1.073840   -1.938050   -3.001050
      7          1           0        0.561410    0.676410   -2.864800
      8          1           0       -0.776670    0.257670   -1.753910
      9          1           0       -1.259820   -0.556010   -4.117130
     10          1           0        0.270510   -1.485310   -4.093380
 ---------------------------------------------------------------------

 SCF Done:  E(RHF) =  -228.853304224     A.U. after   14 cycles
 E2 =    -0.6706445078D+00 EUMP2 =    -0.22952394873176D+03
 CCSD(T)
 CCSD(T)= -0.22958486506D+03

 Alpha  occ. eigenvalues --  -20.61914 -20.61662 -11.28686 -11.23189  -1.46393
 Alpha  occ. eigenvalues --   -1.22344  -1.00609  -0.83780  -0.71247  -0.66262
 Alpha  occ. eigenvalues --   -0.63489  -0.58532  -0.55060  -0.53699  -0.49703
 Alpha  occ. eigenvalues --   -0.48410  -0.43683
 Alpha virt. eigenvalues --    0.17900   0.20205   0.23374   0.23666   0.25795
 Alpha virt. eigenvalues --    0.27027   0.29481   0.37778   0.39339   0.59302
 Alpha virt. eigenvalues --    0.61566   0.65826   0.74650   0.78157   0.80982

 Mulliken charges:
               1
     1  C   -0.080487
     2  C    0.187731
     3  O   -0.312636
     4  O   -0.201114
     5  H    0.202715
     6  H    0.036884
     7  H    0.041662
     8  H    0.047456
     9  H    0.034997
    10  H    0.042793
 Sum of Mulliken charges =   0.00000

 Dipole moment (field-independent basis, Debye):
    X=             -0.8777    Y=             -0.8293    Z=             -1.3414  Tot=              1.8048
 Quadrupole moment (field-independent basis, Debye-Ang):
   XX=            -26.4960   YY=            -19.3378   ZZ=            -20.9057
   XY=             -0.5814   XZ=              1.4093   YZ=              0.0142

 CCSD(T)/cc-pVDZ SP Nosymm\\PEscan\\0,1\C,0,-0.54589,-1.09045,-3.46811\
 Normal termination of Gaussian 09 at Thu Dec 21 20:16:13 2017.
