 Gaussian 09, Revision D.01,
 Gaussian 09:  EM64L-G09RevD.01 24-Apr-2013

 ------------------------
 #P MP2/cc-pVQZ SP Nosymm
 ------------------------

 ------
 PEscan
 ------
 Symbolic Z-matrix:
 Charge =  0 Multiplicity = 1

                          Input orientation:
 ---------------------------------------------------------------------
 Center     Atomic      Atomic             Coordinates (Angstroms)
 Number     Number       Type             X           Y           Z
 ---------------------------------------------------------------------
      1          6           0       -0.566050   -1.016580   -3.683260
      2          6           0       -0.099470   -0.440490   -2.355710
      3          8           0        0.707570   -1.446930   -1.756010
      4          8           0        0.956890   -1.002650   -0.389160
      5          1           0        0.485060   -1.712630    0.077700
      6          1           0       -1.165400   -1.925530   -3.519130
      7          1           0        0.483270    0.489340   -2.493140
      8          1           0       -0.960360   -0.214530   -1.699880
      9          1           0       -1.182460   -0.276300   -4.217970
     10          1           0        0.296110   -1.275820   -4.317880
 ---------------------------------------------------------------------

 SCF Done:  E(RHF) =  -228.943073244     A.U. after   13 cycles
 E2 =    -0.9021695149D+00 EUMP2 =    -0.22984524275917D+03

 Alpha  occ. eigenvalues --  -20.61883 -20.61854 -11.28377 -11.22676  -1.46654
 Alpha  occ. eigenvalues --   -1.22633  -1.00369  -0.84022  -0.71512  -0.66193
 Alpha  occ. eigenvalues --   -0.65030  -0.59826  -0.54190  -0.53253  -0.50067
 Alpha  occ. eigenvalues --   -0.48988  -0.44696
 Alpha virt. eigenvalues --    0.11186   0.13077   0.15741   0.17223   0.18786
 Alpha virt. eigenvalues --    0.20853   0.22879   0.26927   0.27247   0.30159
 Alpha virt. eigenvalues --    0.31227   0.35902   0.37097   0.45014   0.46180

 Mulliken charges:
               1
     1  C   -0.212547
     2  C    0.172675
     3  O   -0.240325
     4  O   -0.307356
     5  H    0.280802
     6  H    0.077435
     7  H    0.048676
     8  H    0.031740
     9  H    0.066092
    10  H    0.082808
 Sum of Mulliken charges =   0.00000

 Dipole moment (field-independent basis, Debye):
    X=             -1.8946    Y=             -0.0226    Z=             -0.1862  Tot=              1.9038
 Quadrupole moment (field-independent basis, Debye-Ang):
   XX=            -27.3168   YY=            -24.3389   ZZ=            -21.3986
   XY=              2.0976   XZ=              2.1817   YZ=             -2.8710

 Normal termination of Gaussian 09 at Thu Dec 21 16:26:23 2017.
