 Gaussian 09, Revision D.01,
 Gaussian 09:  EM64L-G09RevD.01 24-Apr-2013

 ----------------------------
 #P CCSD(T)/cc-pVDZ SP Nosymm
 ----------------------------

 ------
 PEscan
 ------
 Symbolic Z-matrix:
 Charge =  0 Multiplicity = 1

                          Input orientation:
 ---------------------------------------------------------------------
 Center     Atomic      Atomic             Coordinates (Angstroms)
 Number     Number       Type             X           Y           Z
 ---------------------------------------------------------------------
      1          6           0       -0.981280   -0.972030   -3.466990
      2          6           0        0.093630   -0.533020   -2.485700
      3          8           0        0.266420   -1.619730   -1.584790
      4          8           0        1.453680   -1.301700   -0.800820
      5          1           0        1.033680   -1.206740    0.070810
      6          1           0       -1.920250   -1.202930   -2.939260
      7          1           0        1.046510   -0.329290   -3.005670
      8          1           0       -0.203400    0.381730   -1.936380
      9          1           0       -1.177800   -0.167160   -4.193210
     10          1           0       -0.656030   -1.871250   -4.012410
 ---------------------------------------------------------------------

 SCF Done:  E(RHF) =  -228.854986038     A.U. after   14 cycles
 E2 =    -0.6703376246D+00 EUMP2 =    -0.22952532366234D+03
 CCSD(T)
 CCSD(T)= -0.22958593041D+03

 Alpha  occ. eigenvalues --  -20.61835 -20.61707 -11.28718 -11.23282  -1.46598
 Alpha  occ. eigenvalues --   -1.22516  -1.00294  -0.83872  -0.71373  -0.65701
 Alpha  occ. eigenvalues --   -0.63757  -0.60373  -0.53875  -0.52142  -0.50114
 Alpha  occ. eigenvalues --   -0.48509  -0.44157
 Alpha virt. eigenvalues --    0.18463   0.18969   0.23644   0.24402   0.26023
 Alpha virt. eigenvalues --    0.28070   0.29135   0.36381   0.40025   0.59393
 Alpha virt. eigenvalues --    0.61584   0.68053   0.74304   0.76283   0.81944

 Mulliken charges:
               1
     1  C   -0.087933
     2  C    0.198456
     3  O   -0.316171
     4  O   -0.193827
     5  H    0.201321
     6  H    0.046546
     7  H    0.039933
     8  H    0.021035
     9  H    0.038007
    10  H    0.052634
 Sum of Mulliken charges =   0.00000

 Dipole moment (field-independent basis, Debye):
    X=             -1.0636    Y=              1.5047    Z=              0.2408  Tot=              1.8583
 Quadrupole moment (field-independent basis, Debye-Ang):
   XX=            -27.3322   YY=            -29.0207   ZZ=            -20.3579
   XY=              1.7082   XZ=              2.2998   YZ=             -3.0324

 CCSD(T)/cc-pVDZ SP Nosymm\\PEscan\\0,1\C,0,-0.98128,-0.97203,-3.46699\
 Normal termination of Gaussian 09 at Thu Dec 21 20:42:43 2017.
