 Gaussian 09, Revision D.01,
 Gaussian 09:  EM64L-G09RevD.01 24-Apr-2013

 ------------------------
 #P MP2/cc-pVQZ SP Nosymm
 ------------------------

 ------
 PEscan
 ------
 Symbolic Z-matrix:
 Charge =  0 Multiplicity = 1

                          Input orientation:
 ---------------------------------------------------------------------
 Center     Atomic      Atomic             Coordinates (Angstroms)
 Number     Number       Type             X           Y           Z
 ---------------------------------------------------------------------
      1          6           0       -0.741390   -1.080170   -3.345590
      2          6           0       -0.091440   -0.155560   -2.327470
      3          8           0        0.069220   -0.729460   -1.031820
      4          8           0        0.705500   -2.028620   -1.214440
      5          1           0        1.561120   -1.830350   -0.797410
      6          1           0       -1.706810   -1.452870   -2.966650
      7          1           0        0.889330    0.195490   -2.709350
      8          1           0       -0.717740    0.728580   -2.120060
      9          1           0       -0.919460   -0.528260   -4.283510
     10          1           0       -0.093160   -1.940870   -3.558120
 ---------------------------------------------------------------------

 SCF Done:  E(RHF) =  -228.941171151     A.U. after   12 cycles
 E2 =    -0.9028761643D+00 EUMP2 =    -0.22984404731485D+03

 Alpha  occ. eigenvalues --  -20.61911 -20.61845 -11.28537 -11.21936  -1.46631
 Alpha  occ. eigenvalues --   -1.22398  -1.00524  -0.83627  -0.70975  -0.66802
 Alpha  occ. eigenvalues --   -0.65067  -0.58006  -0.55607  -0.53278  -0.50036
 Alpha  occ. eigenvalues --   -0.48052  -0.44533
 Alpha virt. eigenvalues --    0.11281   0.13795   0.15156   0.17169   0.18882
 Alpha virt. eigenvalues --    0.20504   0.22692   0.27773   0.28388   0.30665
 Alpha virt. eigenvalues --    0.30689   0.35615   0.39098   0.44484   0.45055

 Mulliken charges:
               1
     1  C   -0.220225
     2  C    0.144169
     3  O   -0.237227
     4  O   -0.298161
     5  H    0.274339
     6  H    0.078528
     7  H    0.026783
     8  H    0.073863
     9  H    0.065318
    10  H    0.092613
 Sum of Mulliken charges =   0.00000

 Dipole moment (field-independent basis, Debye):
    X=              1.1317    Y=              0.9600    Z=             -1.0157  Tot=              1.7984
 Quadrupole moment (field-independent basis, Debye-Ang):
   XX=            -21.3747   YY=            -27.3763   ZZ=            -21.5424
   XY=             -2.4480   XZ=              0.1905   YZ=             -1.7035

 Normal termination of Gaussian 09 at Thu Dec 21 18:46:08 2017.
