 Gaussian 09, Revision D.01,
 Gaussian 09:  EM64L-G09RevD.01 24-Apr-2013

 ------------------------
 #P MP2/cc-pVQZ SP Nosymm
 ------------------------

 ------
 PEscan
 ------
 Symbolic Z-matrix:
 Charge =  0 Multiplicity = 1

                          Input orientation:
 ---------------------------------------------------------------------
 Center     Atomic      Atomic             Coordinates (Angstroms)
 Number     Number       Type             X           Y           Z
 ---------------------------------------------------------------------
      1          6           0       -0.539750   -1.109430   -3.390340
      2          6           0        0.009290   -0.101570   -2.390910
      3          8           0        0.950140   -0.664400   -1.483010
      4          8           0        0.176480   -1.542710   -0.608220
      5          1           0        0.605580   -2.385960   -0.830740
      6          1           0       -1.114460   -1.890620   -2.870050
      7          1           0        0.598730    0.682630   -2.896550
      8          1           0       -0.806000    0.384990   -1.825200
      9          1           0       -1.208720   -0.610620   -4.111040
     10          1           0        0.283880   -1.584410   -3.948350
 ---------------------------------------------------------------------

 SCF Done:  E(RHF) =  -228.942435783     A.U. after   12 cycles
 E2 =    -0.9028626708D+00 EUMP2 =    -0.22984529845358D+03

 Alpha  occ. eigenvalues --  -20.61958 -20.61851 -11.28461 -11.22473  -1.46598
 Alpha  occ. eigenvalues --   -1.22512  -1.00762  -0.83753  -0.71903  -0.66713
 Alpha  occ. eigenvalues --   -0.63458  -0.60052  -0.54519  -0.53881  -0.50694
 Alpha  occ. eigenvalues --   -0.48327  -0.44551
 Alpha virt. eigenvalues --    0.11221   0.13748   0.15612   0.16726   0.18650
 Alpha virt. eigenvalues --    0.20042   0.22681   0.27116   0.28154   0.29517
 Alpha virt. eigenvalues --    0.30532   0.35639   0.39698   0.44005   0.45272

 Mulliken charges:
               1
     1  C   -0.233322
     2  C    0.145901
     3  O   -0.236440
     4  O   -0.308870
     5  H    0.283754
     6  H    0.076124
     7  H    0.079146
     8  H    0.048772
     9  H    0.071353
    10  H    0.073580
 Sum of Mulliken charges =   0.00000

 Dipole moment (field-independent basis, Debye):
    X=             -0.5028    Y=             -0.7185    Z=             -1.6597  Tot=              1.8771
 Quadrupole moment (field-independent basis, Debye-Ang):
   XX=            -26.1234   YY=            -19.7170   ZZ=            -20.3761
   XY=             -1.3910   XZ=              0.7989   YZ=              0.8503

 Normal termination of Gaussian 09 at Thu Dec 21 17:28:57 2017.
