 Gaussian 09, Revision D.01,
 Gaussian 09:  EM64L-G09RevD.01 24-Apr-2013

 ----------------------------
 #P CCSD(T)/cc-pVDZ SP Nosymm
 ----------------------------

 ------
 PEscan
 ------
 Symbolic Z-matrix:
 Charge =  0 Multiplicity = 1

                          Input orientation:
 ---------------------------------------------------------------------
 Center     Atomic      Atomic             Coordinates (Angstroms)
 Number     Number       Type             X           Y           Z
 ---------------------------------------------------------------------
      1          6           0       -0.965500   -0.976420   -3.482640
      2          6           0        0.020750   -0.494490   -2.430840
      3          8           0        0.121020   -1.533700   -1.457170
      4          8           0        1.466170   -1.464210   -0.904530
      5          1           0        1.246570   -1.183280    0.000060
      6          1           0       -1.942610   -1.206510   -3.028030
      7          1           0        1.015290   -0.333060   -2.878150
      8          1           0       -0.306750    0.452900   -1.958210
      9          1           0       -1.115890   -0.196110   -4.246460
     10          1           0       -0.583900   -1.887240   -3.968450
 ---------------------------------------------------------------------

 SCF Done:  E(RHF) =  -228.853165855     A.U. after   14 cycles
 E2 =    -0.6701939563D+00 EUMP2 =    -0.22952335981171D+03
 CCSD(T)
 CCSD(T)= -0.22958406835D+03

 Alpha  occ. eigenvalues --  -20.61886 -20.61544 -11.28651 -11.23147  -1.46500
 Alpha  occ. eigenvalues --   -1.22345  -1.00262  -0.83836  -0.71551  -0.65520
 Alpha  occ. eigenvalues --   -0.62509  -0.61434  -0.53807  -0.52162  -0.49895
 Alpha  occ. eigenvalues --   -0.48357  -0.44075
 Alpha virt. eigenvalues --    0.18613   0.18879   0.23810   0.24367   0.26176
 Alpha virt. eigenvalues --    0.27258   0.29676   0.36565   0.39848   0.59479
 Alpha virt. eigenvalues --    0.61178   0.67780   0.74532   0.76106   0.80992

 Mulliken charges:
               1
     1  C   -0.083592
     2  C    0.190163
     3  O   -0.319018
     4  O   -0.190914
     5  H    0.200970
     6  H    0.046449
     7  H    0.045115
     8  H    0.024023
     9  H    0.035037
    10  H    0.051768
 Sum of Mulliken charges =   0.00000

 Dipole moment (field-independent basis, Debye):
    X=             -0.5359    Y=              1.7644    Z=              0.1991  Tot=              1.8547
 Quadrupole moment (field-independent basis, Debye-Ang):
   XX=            -26.4010   YY=            -29.5619   ZZ=            -20.6217
   XY=              1.4151   XZ=              2.4045   YZ=             -2.9451

 CCSD(T)/cc-pVDZ SP Nosymm\\PEscan\\0,1\C,0,-0.9655,-0.97642,-3.48264\C
 Normal termination of Gaussian 09 at Thu Dec 21 20:40:41 2017.
