 Gaussian 09, Revision D.01,
 Gaussian 09:  EM64L-G09RevD.01 24-Apr-2013

 ----------------------------
 #P CCSD(T)/cc-pVDZ SP Nosymm
 ----------------------------

 ------
 PEscan
 ------
 Symbolic Z-matrix:
 Charge =  0 Multiplicity = 1

                          Input orientation:
 ---------------------------------------------------------------------
 Center     Atomic      Atomic             Coordinates (Angstroms)
 Number     Number       Type             X           Y           Z
 ---------------------------------------------------------------------
      1          6           0       -0.559790   -1.062440   -3.570280
      2          6           0       -0.000850   -0.260070   -2.403900
      3          8           0        0.970300   -1.044810   -1.697420
      4          8           0        0.499260   -1.190240   -0.324180
      5          1           0        0.431580   -2.159350   -0.298740
      6          1           0       -1.095320   -1.953750   -3.204970
      7          1           0        0.506320    0.654500   -2.762090
      8          1           0       -0.790050    0.036910   -1.697070
      9          1           0       -1.260350   -0.448540   -4.161200
     10          1           0        0.254050   -1.394330   -4.234570
 ---------------------------------------------------------------------

 SCF Done:  E(RHF) =  -228.850115130     A.U. after   14 cycles
 E2 =    -0.6699922189D+00 EUMP2 =    -0.22952010734874D+03
 CCSD(T)
 CCSD(T)= -0.22958110625D+03

 Alpha  occ. eigenvalues --  -20.61935 -20.61309 -11.28581 -11.23306  -1.46187
 Alpha  occ. eigenvalues --   -1.22132  -1.00509  -0.83859  -0.70650  -0.66551
 Alpha  occ. eigenvalues --   -0.63981  -0.56763  -0.56434  -0.53749  -0.48926
 Alpha  occ. eigenvalues --   -0.48673  -0.43499
 Alpha virt. eigenvalues --    0.18073   0.19496   0.23258   0.23777   0.26188
 Alpha virt. eigenvalues --    0.26863   0.29520   0.37399   0.39418   0.59214
 Alpha virt. eigenvalues --    0.61031   0.66269   0.74562   0.77834   0.81115

 Mulliken charges:
               1
     1  C   -0.077487
     2  C    0.187082
     3  O   -0.325371
     4  O   -0.191547
     5  H    0.201735
     6  H    0.035326
     7  H    0.040288
     8  H    0.049311
     9  H    0.033840
    10  H    0.046824
 Sum of Mulliken charges =   0.00000

 Dipole moment (field-independent basis, Debye):
    X=             -1.5220    Y=             -0.7371    Z=             -0.8946  Tot=              1.9131
 Quadrupole moment (field-independent basis, Debye-Ang):
   XX=            -27.0272   YY=            -20.2487   ZZ=            -21.5756
   XY=              0.9645   XZ=              2.0460   YZ=             -1.2251

 CCSD(T)/cc-pVDZ SP Nosymm\\PEscan\\0,1\C,0,-0.55979,-1.06244,-3.57028\
 Normal termination of Gaussian 09 at Thu Dec 21 20:13:11 2017.
