 Gaussian 09, Revision D.01,
 Gaussian 09:  EM64L-G09RevD.01 24-Apr-2013

 ------------------------
 #P MP2/cc-pVQZ SP Nosymm
 ------------------------

 ------
 PEscan
 ------
 Symbolic Z-matrix:
 Charge =  0 Multiplicity = 1

                          Input orientation:
 ---------------------------------------------------------------------
 Center     Atomic      Atomic             Coordinates (Angstroms)
 Number     Number       Type             X           Y           Z
 ---------------------------------------------------------------------
      1          6           0       -0.981280   -0.972030   -3.466990
      2          6           0        0.093630   -0.533020   -2.485700
      3          8           0        0.266420   -1.619730   -1.584790
      4          8           0        1.453680   -1.301700   -0.800820
      5          1           0        1.033680   -1.206740    0.070810
      6          1           0       -1.920250   -1.202930   -2.939260
      7          1           0        1.046510   -0.329290   -3.005670
      8          1           0       -0.203400    0.381730   -1.936380
      9          1           0       -1.177800   -0.167160   -4.193210
     10          1           0       -0.656030   -1.871250   -4.012410
 ---------------------------------------------------------------------

 SCF Done:  E(RHF) =  -228.943553162     A.U. after   13 cycles
 E2 =    -0.9021546535D+00 EUMP2 =    -0.22984570781572D+03

 Alpha  occ. eigenvalues --  -20.61899 -20.61868 -11.28362 -11.22597  -1.46695
 Alpha  occ. eigenvalues --   -1.22635  -1.00318  -0.83996  -0.71864  -0.66062
 Alpha  occ. eigenvalues --   -0.64167  -0.60762  -0.54121  -0.52436  -0.50466
 Alpha  occ. eigenvalues --   -0.49065  -0.44673
 Alpha virt. eigenvalues --    0.11291   0.12953   0.16001   0.17146   0.18766
 Alpha virt. eigenvalues --    0.20953   0.22876   0.26905   0.27310   0.30577
 Alpha virt. eigenvalues --    0.30992   0.35798   0.37287   0.45656   0.46391

 Mulliken charges:
               1
     1  C   -0.213569
     2  C    0.175348
     3  O   -0.240010
     4  O   -0.307834
     5  H    0.281957
     6  H    0.076621
     7  H    0.051313
     8  H    0.024847
     9  H    0.065288
    10  H    0.086039
 Sum of Mulliken charges =   0.00000

 Dipole moment (field-independent basis, Debye):
    X=             -1.0881    Y=              1.4438    Z=              0.1676  Tot=              1.8157
 Quadrupole moment (field-independent basis, Debye-Ang):
   XX=            -27.4718   YY=            -29.0647   ZZ=            -20.3261
   XY=              1.6766   XZ=              2.2459   YZ=             -2.7946

 Normal termination of Gaussian 09 at Thu Dec 21 19:59:52 2017.
