 Gaussian 09, Revision D.01,
 Gaussian 09:  EM64L-G09RevD.01 24-Apr-2013

 ------------------------
 #P MP2/cc-pVQZ SP Nosymm
 ------------------------

 ------
 PEscan
 ------
 Symbolic Z-matrix:
 Charge =  0 Multiplicity = 1

                          Input orientation:
 ---------------------------------------------------------------------
 Center     Atomic      Atomic             Coordinates (Angstroms)
 Number     Number       Type             X           Y           Z
 ---------------------------------------------------------------------
      1          6           0       -0.974740   -0.973640   -3.476610
      2          6           0        0.055770   -0.515600   -2.457150
      3          8           0        0.189230   -1.581080   -1.521500
      4          8           0        1.468150   -1.378160   -0.853570
      5          1           0        1.142040   -1.192480    0.043350
      6          1           0       -1.934320   -1.204870   -2.986940
      7          1           0        1.031060   -0.336890   -2.941380
      8          1           0       -0.254300    0.417430   -1.946100
      9          1           0       -1.147910   -0.179070   -4.220210
     10          1           0       -0.619820   -1.877740   -3.994310
 ---------------------------------------------------------------------

 SCF Done:  E(RHF) =  -228.942822919     A.U. after   12 cycles
 E2 =    -0.9020729134D+00 EUMP2 =    -0.22984489583258D+03

 Alpha  occ. eigenvalues --  -20.61913 -20.61807 -11.28331 -11.22541  -1.46654
 Alpha  occ. eigenvalues --   -1.22569  -1.00300  -0.83974  -0.71981  -0.65993
 Alpha  occ. eigenvalues --   -0.63569  -0.61262  -0.54092  -0.52329  -0.50446
 Alpha  occ. eigenvalues --   -0.49029  -0.44620
 Alpha virt. eigenvalues --    0.11352   0.12902   0.16094   0.17135   0.18790
 Alpha virt. eigenvalues --    0.20921   0.22792   0.26939   0.27383   0.30530
 Alpha virt. eigenvalues --    0.30817   0.35456   0.37287   0.45690   0.46619

 Mulliken charges:
               1
     1  C   -0.211741
     2  C    0.170440
     3  O   -0.242239
     4  O   -0.305568
     5  H    0.282126
     6  H    0.075557
     7  H    0.054459
     8  H    0.026754
     9  H    0.063894
    10  H    0.086318
 Sum of Mulliken charges =   0.00000

 Dipole moment (field-independent basis, Debye):
    X=             -0.8482    Y=              1.5705    Z=              0.1663  Tot=              1.7927
 Quadrupole moment (field-independent basis, Debye-Ang):
   XX=            -27.0965   YY=            -29.3213   ZZ=            -20.4313
   XY=              1.5355   XZ=              2.3540   YZ=             -2.7452

 Normal termination of Gaussian 09 at Thu Dec 21 19:53:45 2017.
