 Gaussian 09, Revision D.01,
 Gaussian 09:  EM64L-G09RevD.01 24-Apr-2013

 ----------------------------
 #P CCSD(T)/cc-pVDZ SP Nosymm
 ----------------------------

 ------
 PEscan
 ------
 Symbolic Z-matrix:
 Charge =  0 Multiplicity = 1

                          Input orientation:
 ---------------------------------------------------------------------
 Center     Atomic      Atomic             Coordinates (Angstroms)
 Number     Number       Type             X           Y           Z
 ---------------------------------------------------------------------
      1          6           0       -0.567250   -1.025250   -3.665790
      2          6           0       -0.069380   -0.403110   -2.370470
      3          8           0        0.778260   -1.374180   -1.762890
      4          8           0        0.869460   -1.018900   -0.350590
      5          1           0        0.452060   -1.815100    0.018360
      6          1           0       -1.154590   -1.932150   -3.454450
      7          1           0        0.484180    0.537940   -2.548970
      8          1           0       -0.914140   -0.183850   -1.694100
      9          1           0       -1.201920   -0.306940   -4.209480
     10          1           0        0.278460   -1.300590   -4.316040
 ---------------------------------------------------------------------

 SCF Done:  E(RHF) =  -228.853451605     A.U. after   14 cycles
 E2 =    -0.6703314746D+00 EUMP2 =    -0.22952378307966D+03
 CCSD(T)
 CCSD(T)= -0.22958448353D+03

 Alpha  occ. eigenvalues --  -20.61829 -20.61615 -11.28705 -11.23386  -1.46460
 Alpha  occ. eigenvalues --   -1.22452  -1.00377  -0.83893  -0.70786  -0.66066
 Alpha  occ. eigenvalues --   -0.64748  -0.58887  -0.54025  -0.53489  -0.49441
 Alpha  occ. eigenvalues --   -0.48455  -0.44059
 Alpha virt. eigenvalues --    0.18348   0.19203   0.23455   0.24180   0.26004
 Alpha virt. eigenvalues --    0.27665   0.29197   0.36520   0.39756   0.59311
 Alpha virt. eigenvalues --    0.61450   0.67377   0.74484   0.76592   0.82605

 Mulliken charges:
               1
     1  C   -0.087120
     2  C    0.200734
     3  O   -0.320182
     4  O   -0.193001
     5  H    0.201409
     6  H    0.043568
     7  H    0.037135
     8  H    0.028693
     9  H    0.037612
    10  H    0.051152
 Sum of Mulliken charges =   0.00000

 Dipole moment (field-independent basis, Debye):
    X=             -1.9304    Y=             -0.2162    Z=             -0.2593  Tot=              1.9597
 Quadrupole moment (field-independent basis, Debye-Ang):
   XX=            -27.2316   YY=            -23.2437   ZZ=            -21.5371
   XY=              2.0253   XZ=              2.2918   YZ=             -2.7588

 CCSD(T)/cc-pVDZ SP Nosymm\\PEscan\\0,1\C,0,-0.56725,-1.02525,-3.66579\
 CCSD(T)=-229.5844835\RMSD=5.718e-09\PG=C01 [X(C2H6O2)]\\@
 Normal termination of Gaussian 09 at Thu Dec 21 20:09:08 2017.
