 Gaussian 09, Revision D.01,
 Gaussian 09:  EM64L-G09RevD.01 24-Apr-2013

 ----------------------------
 #P CCSD(T)/cc-pVDZ SP Nosymm
 ----------------------------

 ------
 PEscan
 ------
 Symbolic Z-matrix:
 Charge =  0 Multiplicity = 1

                          Input orientation:
 ---------------------------------------------------------------------
 Center     Atomic      Atomic             Coordinates (Angstroms)
 Number     Number       Type             X           Y           Z
 ---------------------------------------------------------------------
      1          6           0       -0.563130   -1.008300   -3.697870
      2          6           0       -0.135970   -0.473420   -2.340360
      3          8           0        0.625310   -1.511270   -1.736910
      4          8           0        1.034680   -0.997530   -0.434900
      5          1           0        0.540910   -1.618580    0.126750
      6          1           0       -1.174540   -1.916850   -3.581410
      7          1           0        0.480450    0.438570   -2.440350
      8          1           0       -1.013040   -0.230210   -1.710680
      9          1           0       -1.158330   -0.248920   -4.229640
     10          1           0        0.318820   -1.255610   -4.309040
 ---------------------------------------------------------------------

 SCF Done:  E(RHF) =  -228.855089258     A.U. after   14 cycles
 E2 =    -0.6703630601D+00 EUMP2 =    -0.22952545231807D+03
 CCSD(T)
 CCSD(T)= -0.22958605764D+03

 Alpha  occ. eigenvalues --  -20.61826 -20.61728 -11.28741 -11.23335  -1.46604
 Alpha  occ. eigenvalues --   -1.22538  -1.00325  -0.83895  -0.71220  -0.65761
 Alpha  occ. eigenvalues --   -0.64253  -0.59907  -0.53916  -0.52504  -0.49942
 Alpha  occ. eigenvalues --   -0.48488  -0.44199
 Alpha virt. eigenvalues --    0.18395   0.19046   0.23558   0.24353   0.25989
 Alpha virt. eigenvalues --    0.28331   0.28847   0.36371   0.40019   0.59359
 Alpha virt. eigenvalues --    0.61633   0.67959   0.74326   0.76393   0.82294

 Mulliken charges:
               1
     1  C   -0.088618
     2  C    0.200755
     3  O   -0.316095
     4  O   -0.194461
     5  H    0.201445
     6  H    0.046133
     7  H    0.038231
     8  H    0.021507
     9  H    0.038585
    10  H    0.052517
 Sum of Mulliken charges =   0.00000

 Dipole moment (field-independent basis, Debye):
    X=             -1.8972    Y=              0.1854    Z=              0.0408  Tot=              1.9067
 Quadrupole moment (field-independent basis, Debye-Ang):
   XX=            -27.2538   YY=            -25.0263   ZZ=            -21.3137
   XY=              2.0148   XZ=              2.3560   YZ=             -3.1869

 CCSD(T)/cc-pVDZ SP Nosymm\\PEscan\\0,1\C,0,-0.56313,-1.0083,-3.69787\C
 CCSD(T)=-229.5860576\RMSD=5.644e-09\PG=C01 [X(C2H6O2)]\\@
 Normal termination of Gaussian 09 at Thu Dec 21 20:06:59 2017.
