 Gaussian 09, Revision D.01,
 Gaussian 09:  EM64L-G09RevD.01 24-Apr-2013

 ------------------------
 #P MP2/cc-pVQZ SP Nosymm
 ------------------------

 ------
 PEscan
 ------
 Symbolic Z-matrix:
 Charge =  0 Multiplicity = 1

                          Input orientation:
 ---------------------------------------------------------------------
 Center     Atomic      Atomic             Coordinates (Angstroms)
 Number     Number       Type             X           Y           Z
 ---------------------------------------------------------------------
      1          6           0       -0.555430   -1.072510   -3.538430
      2          6           0        0.005750   -0.227020   -2.403700
      3          8           0        0.991930   -0.958670   -1.664630
      4          8           0        0.413990   -1.253400   -0.357480
      5          1           0        0.447190   -2.223950   -0.398080
      6          1           0       -1.083320   -1.954590   -3.139870
      7          1           0        0.520810    0.664880   -2.804120
      8          1           0       -0.777670    0.109910   -1.708270
      9          1           0       -1.266060   -0.486160   -4.145210
     10          1           0        0.257960   -1.420600   -4.194640
 ---------------------------------------------------------------------

 SCF Done:  E(RHF) =  -228.939105561     A.U. after   13 cycles
 E2 =    -0.9018792584D+00 EUMP2 =    -0.22984098481893D+03

 Alpha  occ. eigenvalues --  -20.61981 -20.61510 -11.28243 -11.22590  -1.46319
 Alpha  occ. eigenvalues --   -1.22275  -1.00550  -0.83970  -0.71329  -0.66803
 Alpha  occ. eigenvalues --   -0.64209  -0.57458  -0.56572  -0.54007  -0.49438
 Alpha  occ. eigenvalues --   -0.49101  -0.44039
 Alpha virt. eigenvalues --    0.11237   0.13430   0.15353   0.17146   0.18731
 Alpha virt. eigenvalues --    0.20458   0.22404   0.26301   0.28029   0.29101
 Alpha virt. eigenvalues --    0.30862   0.35172   0.38255   0.44956   0.45668

 Mulliken charges:
               1
     1  C   -0.207909
     2  C    0.136691
     3  O   -0.250385
     4  O   -0.300202
     5  H    0.281731
     6  H    0.063944
     7  H    0.069810
     8  H    0.060331
     9  H    0.066856
    10  H    0.079133
 Sum of Mulliken charges =   0.00000

 Dipole moment (field-independent basis, Debye):
    X=             -1.2869    Y=             -0.7390    Z=             -1.0983  Tot=              1.8463
 Quadrupole moment (field-independent basis, Debye-Ang):
   XX=            -27.0044   YY=            -20.0856   ZZ=            -21.4388
   XY=              0.5532   XZ=              1.8064   YZ=             -0.7025

 Normal termination of Gaussian 09 at Thu Dec 21 17:03:30 2017.
