 Gaussian 09, Revision D.01,
 Gaussian 09:  EM64L-G09RevD.01 24-Apr-2013

 ------------------------
 #P MP2/cc-pVQZ SP Nosymm
 ------------------------

 ------
 PEscan
 ------
 Symbolic Z-matrix:
 Charge =  0 Multiplicity = 1

                          Input orientation:
 ---------------------------------------------------------------------
 Center     Atomic      Atomic             Coordinates (Angstroms)
 Number     Number       Type             X           Y           Z
 ---------------------------------------------------------------------
      1          6           0       -0.543150   -1.117010   -3.355230
      2          6           0        0.001680   -0.079120   -2.384530
      3          8           0        0.909470   -0.605780   -1.421080
      4          8           0        0.172030   -1.614890   -0.666720
      5          1           0        0.673280   -2.399530   -0.945100
      6          1           0       -1.166720   -1.851700   -2.826080
      7          1           0        0.616450    0.677250   -2.901530
      8          1           0       -0.828870    0.440000   -1.869430
      9          1           0       -1.161430   -0.625250   -4.124290
     10          1           0        0.282410   -1.646080   -3.860430
 ---------------------------------------------------------------------

 SCF Done:  E(RHF) =  -228.941798537     A.U. after   12 cycles
 E2 =    -0.9029049736D+00 EUMP2 =    -0.22984470351100D+03

 Alpha  occ. eigenvalues --  -20.61957 -20.61817 -11.28533 -11.22533  -1.46608
 Alpha  occ. eigenvalues --   -1.22463  -1.00885  -0.83685  -0.71924  -0.66734
 Alpha  occ. eigenvalues --   -0.63193  -0.60664  -0.54312  -0.53775  -0.50929
 Alpha  occ. eigenvalues --   -0.48049  -0.44652
 Alpha virt. eigenvalues --    0.11067   0.13754   0.15718   0.16658   0.18638
 Alpha virt. eigenvalues --    0.19890   0.22668   0.27324   0.28189   0.29781
 Alpha virt. eigenvalues --    0.30696   0.35966   0.39075   0.43695   0.45241

 Mulliken charges:
               1
     1  C   -0.237068
     2  C    0.148525
     3  O   -0.235279
     4  O   -0.308988
     5  H    0.283998
     6  H    0.083381
     7  H    0.079099
     8  H    0.044203
     9  H    0.073741
    10  H    0.068388
 Sum of Mulliken charges =   0.00000

 Dipole moment (field-independent basis, Debye):
    X=             -0.3545    Y=             -0.6782    Z=             -1.8304  Tot=              1.9839
 Quadrupole moment (field-independent basis, Debye-Ang):
   XX=            -25.7894   YY=            -19.9556   ZZ=            -19.9681
   XY=             -1.7799   XZ=              0.4787   YZ=              1.2682

 Normal termination of Gaussian 09 at Thu Dec 21 17:35:23 2017.
