 Gaussian 09, Revision D.01,
 Gaussian 09:  EM64L-G09RevD.01 24-Apr-2013

 ----------------------------
 #P CCSD(T)/cc-pVDZ SP Nosymm
 ----------------------------

 ------
 PEscan
 ------
 Symbolic Z-matrix:
 Charge =  0 Multiplicity = 1

                          Input orientation:
 ---------------------------------------------------------------------
 Center     Atomic      Atomic             Coordinates (Angstroms)
 Number     Number       Type             X           Y           Z
 ---------------------------------------------------------------------
      1          6           0       -0.798080   -1.057730   -3.384700
      2          6           0       -0.097840   -0.221920   -2.324400
      3          8           0       -0.020950   -0.880040   -1.064360
      4          8           0        0.930060   -1.973840   -1.244610
      5          1           0        1.624140   -1.654350   -0.643790
      6          1           0       -1.808850   -1.333000   -3.044430
      7          1           0        0.914470    0.080410   -2.652160
      8          1           0       -0.676510    0.689060   -2.090400
      9          1           0       -0.882020   -0.490930   -4.327070
     10          1           0       -0.229280   -1.979780   -3.578500
 ---------------------------------------------------------------------

 SCF Done:  E(RHF) =  -228.854761544     A.U. after   14 cycles
 E2 =    -0.6709310659D+00 EUMP2 =    -0.22952569260991D+03
 CCSD(T)
 CCSD(T)= -0.22958653026D+03

 Alpha  occ. eigenvalues --  -20.61880 -20.61847 -11.28852 -11.22542  -1.46607
 Alpha  occ. eigenvalues --   -1.22402  -1.00334  -0.83659  -0.70779  -0.66229
 Alpha  occ. eigenvalues --   -0.64347  -0.57307  -0.56179  -0.53065  -0.49082
 Alpha  occ. eigenvalues --   -0.47824  -0.44258
 Alpha virt. eigenvalues --    0.18245   0.20669   0.23026   0.23990   0.26174
 Alpha virt. eigenvalues --    0.26985   0.29927   0.37677   0.39618   0.59961
 Alpha virt. eigenvalues --    0.61738   0.66296   0.74474   0.78120   0.80980

 Mulliken charges:
               1
     1  C   -0.077362
     2  C    0.184939
     3  O   -0.307235
     4  O   -0.202101
     5  H    0.202937
     6  H    0.045243
     7  H    0.024798
     8  H    0.041532
     9  H    0.030008
    10  H    0.057241
 Sum of Mulliken charges =   0.00000

 Dipole moment (field-independent basis, Debye):
    X=              1.0675    Y=              1.3316    Z=             -0.6433  Tot=              1.8239
 Quadrupole moment (field-independent basis, Debye-Ang):
   XX=            -21.5930   YY=            -28.3084   ZZ=            -21.8086
   XY=             -1.5444   XZ=              0.8713   YZ=             -2.5141

 CCSD(T)/cc-pVDZ SP Nosymm\\PEscan\\0,1\C,0,-0.79808,-1.05773,-3.3847\C
 Normal termination of Gaussian 09 at Thu Dec 21 20:32:35 2017.
