 Gaussian 09, Revision D.01,
 Gaussian 09:  EM64L-G09RevD.01 24-Apr-2013

 ------------------------
 #P MP2/cc-pVQZ SP Nosymm
 ------------------------

 ------
 PEscan
 ------
 Symbolic Z-matrix:
 Charge =  0 Multiplicity = 1

                          Input orientation:
 ---------------------------------------------------------------------
 Center     Atomic      Atomic             Coordinates (Angstroms)
 Number     Number       Type             X           Y           Z
 ---------------------------------------------------------------------
      1          6           0       -0.563590   -1.052040   -3.599360
      2          6           0       -0.011570   -0.293580   -2.401200
      3          8           0        0.933780   -1.132490   -1.724250
      4          8           0        0.583760   -1.133770   -0.307350
      5          1           0        0.434570   -2.088220   -0.203420
      6          1           0       -1.111920   -1.948240   -3.268040
      7          1           0        0.496950    0.637270   -2.713930
      8          1           0       -0.811700   -0.029420   -1.692980
      9          1           0       -1.248650   -0.409920   -4.177980
     10          1           0        0.253520   -1.371710   -4.265920
 ---------------------------------------------------------------------

 SCF Done:  E(RHF) =  -228.938616550     A.U. after   13 cycles
 E2 =    -0.9018598389D+00 EUMP2 =    -0.22984047638930D+03

 Alpha  occ. eigenvalues --  -20.61961 -20.61468 -11.28223 -11.22630  -1.46282
 Alpha  occ. eigenvalues --   -1.22299  -1.00461  -0.83969  -0.70960  -0.66991
 Alpha  occ. eigenvalues --   -0.64630  -0.57624  -0.55963  -0.54032  -0.49315
 Alpha  occ. eigenvalues --   -0.49171  -0.44044
 Alpha virt. eigenvalues --    0.11211   0.13262   0.15404   0.17286   0.18837
 Alpha virt. eigenvalues --    0.20525   0.22401   0.26505   0.27995   0.28878
 Alpha virt. eigenvalues --    0.30988   0.35034   0.37414   0.44937   0.46299

 Mulliken charges:
               1
     1  C   -0.201658
     2  C    0.140131
     3  O   -0.252002
     4  O   -0.295308
     5  H    0.277982
     6  H    0.068457
     7  H    0.060970
     8  H    0.058970
     9  H    0.064512
    10  H    0.077947
 Sum of Mulliken charges =   0.00000

 Dipole moment (field-independent basis, Debye):
    X=             -1.5689    Y=             -0.6098    Z=             -0.7773  Tot=              1.8540
 Quadrupole moment (field-independent basis, Debye-Ang):
   XX=            -27.1280   YY=            -21.0817   ZZ=            -21.7131
   XY=              1.3153   XZ=              2.0486   YZ=             -1.6047

 Normal termination of Gaussian 09 at Thu Dec 21 16:51:00 2017.
