 Gaussian 09, Revision D.01,
 Gaussian 09:  EM64L-G09RevD.01 24-Apr-2013

 ----------------------------
 #P CCSD(T)/cc-pVDZ SP Nosymm
 ----------------------------

 ------
 PEscan
 ------
 Symbolic Z-matrix:
 Charge =  0 Multiplicity = 1

                          Input orientation:
 ---------------------------------------------------------------------
 Center     Atomic      Atomic             Coordinates (Angstroms)
 Number     Number       Type             X           Y           Z
 ---------------------------------------------------------------------
      1          6           0       -0.597870   -1.115320   -3.293640
      2          6           0       -0.039420   -0.047560   -2.365330
      3          8           0        0.637250   -0.518250   -1.183810
      4          8           0        0.238640   -1.887990   -0.894440
      5          1           0        1.090130   -2.321500   -1.067640
      6          1           0       -1.390650   -1.696410   -2.804750
      7          1           0        0.715070    0.570680   -2.882780
      8          1           0       -0.865420    0.618280   -2.048650
      9          1           0       -1.019070   -0.613370   -4.180740
     10          1           0        0.186490   -1.810680   -3.632640
 ---------------------------------------------------------------------

 SCF Done:  E(RHF) =  -228.846932983     A.U. after   14 cycles
 E2 =    -0.6704112099D+00 EUMP2 =    -0.22951734419288D+03
 CCSD(T)
 CCSD(T)= -0.22957855546D+03

 Alpha  occ. eigenvalues --  -20.61822 -20.61306 -11.28905 -11.23371  -1.46170
 Alpha  occ. eigenvalues --   -1.21840  -1.01093  -0.83242  -0.71080  -0.66234
 Alpha  occ. eigenvalues --   -0.62485  -0.60887  -0.53675  -0.52980  -0.50977
 Alpha  occ. eigenvalues --   -0.47328  -0.43435
 Alpha virt. eigenvalues --    0.16860   0.21163   0.23670   0.24378   0.25782
 Alpha virt. eigenvalues --    0.26236   0.28841   0.36113   0.42391   0.59127
 Alpha virt. eigenvalues --    0.61747   0.67121   0.73894   0.75240   0.80684

 Mulliken charges:
               1
     1  C   -0.093069
     2  C    0.200338
     3  O   -0.325546
     4  O   -0.192343
     5  H    0.203687
     6  H    0.062412
     7  H    0.040002
     8  H    0.036660
     9  H    0.036779
    10  H    0.031079
 Sum of Mulliken charges =   0.00000

 Dipole moment (field-independent basis, Debye):
    X=              0.4791    Y=             -0.3741    Z=             -1.9995  Tot=              2.0898
 Quadrupole moment (field-independent basis, Debye-Ang):
   XX=            -23.2803   YY=            -21.9793   ZZ=            -19.2320
   XY=             -3.4901   XZ=             -0.6209   YZ=              1.2206

 CCSD(T)/cc-pVDZ SP Nosymm\\PEscan\\0,1\C,0,-0.59787,-1.11532,-3.29364\
 \CCSD(T)=-229.5785555\RMSD=5.104e-09\PG=C01 [X(C2H6O2)]\\@
 Normal termination of Gaussian 09 at Thu Dec 21 20:23:22 2017.
