 Gaussian 09, Revision D.01,
 Gaussian 09:  EM64L-G09RevD.01 24-Apr-2013

 ----------------------------
 #P CCSD(T)/cc-pVDZ SP Nosymm
 ----------------------------

 ------
 PEscan
 ------
 Symbolic Z-matrix:
 Charge =  0 Multiplicity = 1

                          Input orientation:
 ---------------------------------------------------------------------
 Center     Atomic      Atomic             Coordinates (Angstroms)
 Number     Number       Type             X           Y           Z
 ---------------------------------------------------------------------
      1          6           0       -0.688120   -1.096260   -3.315260
      2          6           0       -0.077300   -0.103960   -2.337440
      3          8           0        0.201670   -0.617650   -1.027190
      4          8           0        0.504080   -2.036650   -1.128000
      5          1           0        1.456200   -2.003960   -0.932630
      6          1           0       -1.591590   -1.562630   -2.891380
      7          1           0        0.854970    0.308440   -2.777140
      8          1           0       -0.759890    0.738590   -2.136590
      9          1           0       -0.968050   -0.556780   -4.235480
     10          1           0        0.023190   -1.891250   -3.573310
 ---------------------------------------------------------------------

 SCF Done:  E(RHF) =  -228.849401163     A.U. after   14 cycles
 E2 =    -0.6706569811D+00 EUMP2 =    -0.22952005814448D+03
 CCSD(T)
 CCSD(T)= -0.22958109419D+03

 Alpha  occ. eigenvalues --  -20.61868 -20.61501 -11.28916 -11.22900  -1.46406
 Alpha  occ. eigenvalues --   -1.22012  -1.00766  -0.83385  -0.70385  -0.66368
 Alpha  occ. eigenvalues --   -0.64794  -0.58311  -0.54203  -0.53021  -0.50339
 Alpha  occ. eigenvalues --   -0.47480  -0.43661
 Alpha virt. eigenvalues --    0.17280   0.21272   0.23096   0.24427   0.26259
 Alpha virt. eigenvalues --    0.26413   0.29015   0.36552   0.41917   0.59374
 Alpha virt. eigenvalues --    0.61940   0.67283   0.74216   0.76048   0.80875

 Mulliken charges:
               1
     1  C   -0.081845
     2  C    0.188864
     3  O   -0.314392
     4  O   -0.195719
     5  H    0.201912
     6  H    0.051826
     7  H    0.021896
     8  H    0.044999
     9  H    0.033654
    10  H    0.048804
 Sum of Mulliken charges =   0.00000

 Dipole moment (field-independent basis, Debye):
    X=              1.1972    Y=              0.5146    Z=             -1.4805  Tot=              1.9723
 Quadrupole moment (field-independent basis, Debye-Ang):
   XX=            -21.2350   YY=            -25.7805   ZZ=            -20.4572
   XY=             -3.4677   XZ=             -0.5853   YZ=             -0.6428

 CCSD(T)/cc-pVDZ SP Nosymm\\PEscan\\0,1\C,0,-0.68812,-1.09626,-3.31526\
 Normal termination of Gaussian 09 at Thu Dec 21 20:28:26 2017.
