 Gaussian 09, Revision D.01,
 Gaussian 09:  EM64L-G09RevD.01 24-Apr-2013

 ----------------------------
 #P CCSD(T)/cc-pVDZ SP Nosymm
 ----------------------------

 ------
 PEscan
 ------
 Symbolic Z-matrix:
 Charge =  0 Multiplicity = 1

                          Input orientation:
 ---------------------------------------------------------------------
 Center     Atomic      Atomic             Coordinates (Angstroms)
 Number     Number       Type             X           Y           Z
 ---------------------------------------------------------------------
      1          6           0       -0.953550   -0.980790   -3.485250
      2          6           0       -0.010610   -0.470000   -2.407530
      3          8           0        0.062190   -1.475910   -1.391900
      4          8           0        1.447400   -1.551000   -0.953120
      5          1           0        1.346170   -1.188230   -0.056670
      6          1           0       -1.945320   -1.207840   -3.061860
      7          1           0        1.000140   -0.316570   -2.817460
      8          1           0       -0.360850    0.487210   -1.973030
      9          1           0       -1.081450   -0.218980   -4.271990
     10          1           0       -0.548970   -1.899990   -3.935600
 ---------------------------------------------------------------------

 SCF Done:  E(RHF) =  -228.851971632     A.U. after   14 cycles
 E2 =    -0.6700852717D+00 EUMP2 =    -0.22952205690344D+03
 CCSD(T)
 CCSD(T)= -0.22958285123D+03

 Alpha  occ. eigenvalues --  -20.61923 -20.61437 -11.28627 -11.23066  -1.46436
 Alpha  occ. eigenvalues --   -1.22226  -1.00263  -0.83833  -0.71531  -0.65372
 Alpha  occ. eigenvalues --   -0.62349  -0.61524  -0.53813  -0.52481  -0.49601
 Alpha  occ. eigenvalues --   -0.48228  -0.44031
 Alpha virt. eigenvalues --    0.18657   0.18922   0.23853   0.24235   0.26293
 Alpha virt. eigenvalues --    0.26906   0.29780   0.36729   0.39775   0.59541
 Alpha virt. eigenvalues --    0.60933   0.67543   0.74627   0.76254   0.80597

 Mulliken charges:
               1
     1  C   -0.080225
     2  C    0.185593
     3  O   -0.321083
     4  O   -0.189813
     5  H    0.201011
     6  H    0.046254
     7  H    0.047272
     8  H    0.026898
     9  H    0.033171
    10  H    0.050924
 Sum of Mulliken charges =   0.00000

 Dipole moment (field-independent basis, Debye):
    X=             -0.2528    Y=              1.8677    Z=              0.1327  Tot=              1.8894
 Quadrupole moment (field-independent basis, Debye-Ang):
   XX=            -25.7706   YY=            -29.7760   ZZ=            -20.8135
   XY=              1.2517   XZ=              2.3709   YZ=             -2.9090

 CCSD(T)/cc-pVDZ SP Nosymm\\PEscan\\0,1\C,0,-0.95355,-0.98079,-3.48525\
 Normal termination of Gaussian 09 at Thu Dec 21 20:39:41 2017.
