 Gaussian 09, Revision D.01,
 Gaussian 09:  EM64L-G09RevD.01 24-Apr-2013

 ------------------------
 #P MP2/cc-pVQZ SP Nosymm
 ------------------------

 ------
 PEscan
 ------
 Symbolic Z-matrix:
 Charge =  0 Multiplicity = 1

                          Input orientation:
 ---------------------------------------------------------------------
 Center     Atomic      Atomic             Coordinates (Angstroms)
 Number     Number       Type             X           Y           Z
 ---------------------------------------------------------------------
      1          6           0       -0.922360   -0.996140   -3.478330
      2          6           0       -0.057080   -0.410580   -2.373290
      3          8           0       -0.020920   -1.322900   -1.265290
      4          8           0        1.366610   -1.704310   -1.047170
      5          1           0        1.509610   -1.265270   -0.191720
      6          1           0       -1.933820   -1.215090   -3.100450
      7          1           0        0.974390   -0.241910   -2.717910
      8          1           0       -0.468170    0.551790   -2.012640
      9          1           0       -1.012120   -0.284140   -4.316160
     10          1           0       -0.480980   -1.933570   -3.851460
 ---------------------------------------------------------------------

 SCF Done:  E(RHF) =  -228.938950357     A.U. after   13 cycles
 E2 =    -0.9015985055D+00 EUMP2 =    -0.22984054886228D+03

 Alpha  occ. eigenvalues --  -20.61996 -20.61454 -11.28260 -11.22235  -1.46409
 Alpha  occ. eigenvalues --   -1.22186  -1.00300  -0.83944  -0.71778  -0.65408
 Alpha  occ. eigenvalues --   -0.63790  -0.60723  -0.54548  -0.53272  -0.49443
 Alpha  occ. eigenvalues --   -0.48665  -0.44354
 Alpha virt. eigenvalues --    0.11595   0.12925   0.16048   0.17039   0.18893
 Alpha virt. eigenvalues --    0.20377   0.22437   0.26791   0.27980   0.29485
 Alpha virt. eigenvalues --    0.30926   0.34469   0.37364   0.44893   0.46122

 Mulliken charges:
               1
     1  C   -0.200343
     2  C    0.136036
     3  O   -0.252557
     4  O   -0.290888
     5  H    0.275273
     6  H    0.075751
     7  H    0.060314
     8  H    0.057560
     9  H    0.058015
    10  H    0.080841
 Sum of Mulliken charges =   0.00000

 Dipole moment (field-independent basis, Debye):
    X=              0.1822    Y=              1.8412    Z=             -0.0853  Tot=              1.8522
 Quadrupole moment (field-independent basis, Debye-Ang):
   XX=            -24.6333   YY=            -29.8346   ZZ=            -21.2431
   XY=              0.8088   XZ=              2.2728   YZ=             -2.6740

 Normal termination of Gaussian 09 at Thu Dec 21 19:29:36 2017.
