 Gaussian 09, Revision D.01,
 Gaussian 09:  EM64L-G09RevD.01 24-Apr-2013

 ----------------------------
 #P CCSD(T)/cc-pVDZ SP Nosymm
 ----------------------------

 ------
 PEscan
 ------
 Symbolic Z-matrix:
 Charge =  0 Multiplicity = 1

                          Input orientation:
 ---------------------------------------------------------------------
 Center     Atomic      Atomic             Coordinates (Angstroms)
 Number     Number       Type             X           Y           Z
 ---------------------------------------------------------------------
      1          6           0       -0.826720   -1.044780   -3.408610
      2          6           0       -0.094430   -0.261180   -2.330130
      3          8           0       -0.045450   -0.962410   -1.090240
      4          8           0        1.036540   -1.934540   -1.221910
      5          1           0        1.634040   -1.567170   -0.549140
      6          1           0       -1.845050   -1.291820   -3.070060
      7          1           0        0.928290    0.015350   -2.641590
      8          1           0       -0.645560    0.662630   -2.077910
      9          1           0       -0.894120   -0.455160   -4.338400
     10          1           0       -0.292390   -1.983030   -3.626430
 ---------------------------------------------------------------------

 SCF Done:  E(RHF) =  -228.854176972     A.U. after   14 cycles
 E2 =    -0.6706642905D+00 EUMP2 =    -0.22952484126275D+03
 CCSD(T)
 CCSD(T)= -0.22958572571D+03

 Alpha  occ. eigenvalues --  -20.61871 -20.61762 -11.28804 -11.22600  -1.46533
 Alpha  occ. eigenvalues --   -1.22355  -1.00298  -0.83726  -0.70854  -0.65968
 Alpha  occ. eigenvalues --   -0.64202  -0.57852  -0.55925  -0.53078  -0.48887
 Alpha  occ. eigenvalues --   -0.47988  -0.44175
 Alpha virt. eigenvalues --    0.18379   0.20432   0.23094   0.23823   0.26126
 Alpha virt. eigenvalues --    0.27105   0.29747   0.37902   0.39355   0.59713
 Alpha virt. eigenvalues --    0.61654   0.66438   0.74613   0.78334   0.80877

 Mulliken charges:
               1
     1  C   -0.073671
     2  C    0.183587
     3  O   -0.310606
     4  O   -0.201437
     5  H    0.203164
     6  H    0.045148
     7  H    0.029407
     8  H    0.040699
     9  H    0.029504
    10  H    0.054205
 Sum of Mulliken charges =   0.00000

 Dipole moment (field-independent basis, Debye):
    X=              0.9513    Y=              1.4901    Z=             -0.4969  Tot=              1.8364
 Quadrupole moment (field-independent basis, Debye-Ang):
   XX=            -21.9689   YY=            -28.7516   ZZ=            -21.8279
   XY=             -0.9884   XZ=              1.2629   YZ=             -2.7268

 CCSD(T)/cc-pVDZ SP Nosymm\\PEscan\\0,1\C,0,-0.82672,-1.04478,-3.40861\
 96\CCSD(T)=-229.5857257\RMSD=5.275e-09\PG=C01 [X(C2H6O2)]\\@
 Normal termination of Gaussian 09 at Thu Dec 21 20:33:35 2017.
