 Gaussian 09, Revision D.01,
 Gaussian 09:  EM64L-G09RevD.01 24-Apr-2013

 ------------------------
 #P MP2/cc-pVQZ SP Nosymm
 ------------------------

 ------
 PEscan
 ------
 Symbolic Z-matrix:
 Charge =  0 Multiplicity = 1

                          Input orientation:
 ---------------------------------------------------------------------
 Center     Atomic      Atomic             Coordinates (Angstroms)
 Number     Number       Type             X           Y           Z
 ---------------------------------------------------------------------
      1          6           0       -0.985130   -0.971600   -3.453510
      2          6           0        0.133310   -0.544520   -2.516450
      3          8           0        0.351590   -1.646840   -1.645750
      4          8           0        1.424470   -1.236480   -0.747260
      5          1           0        0.921360   -1.230320    0.084490
      6          1           0       -1.900240   -1.200950   -2.885330
      7          1           0        1.060180   -0.312080   -3.071950
      8          1           0       -0.152710    0.350630   -1.931810
      9          1           0       -1.206840   -0.161430   -4.166370
     10          1           0       -0.690860   -1.868530   -4.020480
 ---------------------------------------------------------------------

 SCF Done:  E(RHF) =  -228.943652875     A.U. after   13 cycles
 E2 =    -0.9021816481D+00 EUMP2 =    -0.22984583452324D+03

 Alpha  occ. eigenvalues --  -20.61907 -20.61869 -11.28381 -11.22644  -1.46700
 Alpha  occ. eigenvalues --   -1.22656  -1.00344  -0.84016  -0.71709  -0.66112
 Alpha  occ. eigenvalues --   -0.64665  -0.60303  -0.54155  -0.52781  -0.50305
 Alpha  occ. eigenvalues --   -0.49036  -0.44716
 Alpha virt. eigenvalues --    0.11231   0.13012   0.15878   0.17178   0.18766
 Alpha virt. eigenvalues --    0.20923   0.22909   0.26912   0.27251   0.30408
 Alpha virt. eigenvalues --    0.31189   0.35958   0.37210   0.45359   0.46195

 Mulliken charges:
               1
     1  C   -0.213926
     2  C    0.176065
     3  O   -0.239161
     4  O   -0.308601
     5  H    0.281544
     6  H    0.077463
     7  H    0.049281
     8  H    0.026522
     9  H    0.066034
    10  H    0.084780
 Sum of Mulliken charges =   0.00000

 Dipole moment (field-independent basis, Debye):
    X=             -1.3070    Y=              1.3201    Z=              0.1447  Tot=              1.8633
 Quadrupole moment (field-independent basis, Debye-Ang):
   XX=            -27.7440   YY=            -28.8018   ZZ=            -20.2841
   XY=              1.8435   XZ=              2.0962   YZ=             -2.8528

 Normal termination of Gaussian 09 at Thu Dec 21 20:05:59 2017.
