 Gaussian 09, Revision D.01,
 Gaussian 09:  EM64L-G09RevD.01 24-Apr-2013

 ------------------------
 #P MP2/cc-pVQZ SP Nosymm
 ------------------------

 ------
 PEscan
 ------
 Symbolic Z-matrix:
 Charge =  0 Multiplicity = 1

                          Input orientation:
 ---------------------------------------------------------------------
 Center     Atomic      Atomic             Coordinates (Angstroms)
 Number     Number       Type             X           Y           Z
 ---------------------------------------------------------------------
      1          6           0       -0.563910   -1.122030   -3.308340
      2          6           0       -0.018360   -0.052570   -2.373350
      3          8           0        0.789740   -0.533510   -1.293430
      4          8           0        0.190930   -1.756900   -0.776110
      5          1           0        0.865760   -2.385670   -1.080470
      6          1           0       -1.283730   -1.768690   -2.790010
      7          1           0        0.662820    0.639910   -2.896160
      8          1           0       -0.863340    0.537840   -1.966730
      9          1           0       -1.073010   -0.632130   -4.154840
     10          1           0        0.248270   -1.748360   -3.714990
 ---------------------------------------------------------------------

 SCF Done:  E(RHF) =  -228.938507784     A.U. after   13 cycles
 E2 =    -0.9027208489D+00 EUMP2 =    -0.22984122863260D+03

 Alpha  occ. eigenvalues --  -20.61782 -20.61746 -11.28592 -11.22662  -1.46459
 Alpha  occ. eigenvalues --   -1.22220  -1.01065  -0.83518  -0.71807  -0.66694
 Alpha  occ. eigenvalues --   -0.62429  -0.61731  -0.54066  -0.53518  -0.51266
 Alpha  occ. eigenvalues --   -0.47783  -0.44396
 Alpha virt. eigenvalues --    0.10728   0.13790   0.15725   0.16742   0.18781
 Alpha virt. eigenvalues --    0.19917   0.22465   0.27292   0.28139   0.30084
 Alpha virt. eigenvalues --    0.31578   0.36752   0.37589   0.43389   0.45011

 Mulliken charges:
               1
     1  C   -0.235239
     2  C    0.149600
     3  O   -0.239704
     4  O   -0.303488
     5  H    0.281808
     6  H    0.098625
     7  H    0.074696
     8  H    0.040216
     9  H    0.076337
    10  H    0.057149
 Sum of Mulliken charges =   0.00000

 Dipole moment (field-independent basis, Debye):
    X=              0.0166    Y=             -0.5427    Z=             -2.0306  Tot=              2.1019
 Quadrupole moment (field-independent basis, Debye-Ang):
   XX=            -24.7808   YY=            -20.8928   ZZ=            -19.4044
   XY=             -2.6293   XZ=             -0.1940   YZ=              1.6513

 Normal termination of Gaussian 09 at Thu Dec 21 17:48:17 2017.
