 Gaussian 09, Revision D.01,
 Gaussian 09:  EM64L-G09RevD.01 24-Apr-2013

 ----------------------------
 #P CCSD(T)/cc-pVDZ SP Nosymm
 ----------------------------

 ------
 PEscan
 ------
 Symbolic Z-matrix:
 Charge =  0 Multiplicity = 1

                          Input orientation:
 ---------------------------------------------------------------------
 Center     Atomic      Atomic             Coordinates (Angstroms)
 Number     Number       Type             X           Y           Z
 ---------------------------------------------------------------------
      1          6           0       -0.563590   -1.052040   -3.599360
      2          6           0       -0.011570   -0.293580   -2.401200
      3          8           0        0.933780   -1.132490   -1.724250
      4          8           0        0.583760   -1.133770   -0.307350
      5          1           0        0.434570   -2.088220   -0.203420
      6          1           0       -1.111920   -1.948240   -3.268040
      7          1           0        0.496950    0.637270   -2.713930
      8          1           0       -0.811700   -0.029420   -1.692980
      9          1           0       -1.248650   -0.409920   -4.177980
     10          1           0        0.253520   -1.371710   -4.265920
 ---------------------------------------------------------------------

 SCF Done:  E(RHF) =  -228.850186596     A.U. after   14 cycles
 E2 =    -0.6700440703D+00 EUMP2 =    -0.22952023066598D+03
 CCSD(T)
 CCSD(T)= -0.22958118309D+03

 Alpha  occ. eigenvalues --  -20.61912 -20.61317 -11.28578 -11.23323  -1.46182
 Alpha  occ. eigenvalues --   -1.22175  -1.00457  -0.83851  -0.70477  -0.66630
 Alpha  occ. eigenvalues --   -0.64209  -0.57236  -0.55697  -0.53771  -0.48933
 Alpha  occ. eigenvalues --   -0.48676  -0.43523
 Alpha virt. eigenvalues --    0.18251   0.19326   0.23357   0.23837   0.26251
 Alpha virt. eigenvalues --    0.26810   0.29553   0.37130   0.39432   0.59302
 Alpha virt. eigenvalues --    0.60966   0.66487   0.74568   0.77439   0.81451

 Mulliken charges:
               1
     1  C   -0.079505
     2  C    0.190628
     3  O   -0.326846
     4  O   -0.190398
     5  H    0.201582
     6  H    0.037294
     7  H    0.039098
     8  H    0.046101
     9  H    0.034251
    10  H    0.047795
 Sum of Mulliken charges =   0.00000

 Dipole moment (field-independent basis, Debye):
    X=             -1.6368    Y=             -0.6515    Z=             -0.7228  Tot=              1.9042
 Quadrupole moment (field-independent basis, Debye-Ang):
   XX=            -27.0602   YY=            -20.8251   ZZ=            -21.6804
   XY=              1.2811   XZ=              2.1549   YZ=             -1.6919

 CCSD(T)/cc-pVDZ SP Nosymm\\PEscan\\0,1\C,0,-0.56359,-1.05204,-3.59936\
 5\CCSD(T)=-229.5811831\RMSD=5.072e-09\PG=C01 [X(C2H6O2)]\\@
 Normal termination of Gaussian 09 at Thu Dec 21 20:12:09 2017.
