 Gaussian 09, Revision D.01,
 Gaussian 09:  EM64L-G09RevD.01 24-Apr-2013

 ----------------------------
 #P CCSD(T)/cc-pVDZ SP Nosymm
 ----------------------------

 ------
 PEscan
 ------
 Symbolic Z-matrix:
 Charge =  0 Multiplicity = 1

                          Input orientation:
 ---------------------------------------------------------------------
 Center     Atomic      Atomic             Coordinates (Angstroms)
 Number     Number       Type             X           Y           Z
 ---------------------------------------------------------------------
      1          6           0       -0.974740   -0.973640   -3.476610
      2          6           0        0.055770   -0.515600   -2.457150
      3          8           0        0.189230   -1.581080   -1.521500
      4          8           0        1.468150   -1.378160   -0.853570
      5          1           0        1.142040   -1.192480    0.043350
      6          1           0       -1.934320   -1.204870   -2.986940
      7          1           0        1.031060   -0.336890   -2.941380
      8          1           0       -0.254300    0.417430   -1.946100
      9          1           0       -1.147910   -0.179070   -4.220210
     10          1           0       -0.619820   -1.877740   -3.994310
 ---------------------------------------------------------------------

 SCF Done:  E(RHF) =  -228.854274695     A.U. after   14 cycles
 E2 =    -0.6702817489D+00 EUMP2 =    -0.22952455644442D+03
 CCSD(T)
 CCSD(T)= -0.22958519904D+03

 Alpha  occ. eigenvalues --  -20.61854 -20.61641 -11.28684 -11.23218  -1.46557
 Alpha  occ. eigenvalues --   -1.22450  -1.00271  -0.83849  -0.71490  -0.65626
 Alpha  occ. eigenvalues --   -0.63154  -0.60886  -0.53834  -0.52011  -0.50110
 Alpha  occ. eigenvalues --   -0.48467  -0.44107
 Alpha virt. eigenvalues --    0.18541   0.18909   0.23733   0.24414   0.26086
 Alpha virt. eigenvalues --    0.27664   0.29454   0.36448   0.39952   0.59429
 Alpha virt. eigenvalues --    0.61425   0.67977   0.74379   0.76161   0.81479

 Mulliken charges:
               1
     1  C   -0.086281
     2  C    0.194817
     3  O   -0.317293
     4  O   -0.192464
     5  H    0.201124
     6  H    0.046577
     7  H    0.042401
     8  H    0.022003
     9  H    0.036748
    10  H    0.052368
 Sum of Mulliken charges =   0.00000

 Dipole moment (field-independent basis, Debye):
    X=             -0.8090    Y=              1.6318    Z=              0.2359  Tot=              1.8366
 Quadrupole moment (field-independent basis, Debye-Ang):
   XX=            -26.9237   YY=            -29.2831   ZZ=            -20.4631
   XY=              1.5513   XZ=              2.3810   YZ=             -2.9878

 CCSD(T)/cc-pVDZ SP Nosymm\\PEscan\\0,1\C,0,-0.97474,-0.97364,-3.47661\
 Normal termination of Gaussian 09 at Thu Dec 21 20:41:41 2017.
