 Gaussian 09, Revision D.01,
 Gaussian 09:  EM64L-G09RevD.01 24-Apr-2013

 ------------------------
 #P MP2/cc-pVQZ SP Nosymm
 ------------------------

 ------
 PEscan
 ------
 Symbolic Z-matrix:
 Charge =  0 Multiplicity = 1

                          Input orientation:
 ---------------------------------------------------------------------
 Center     Atomic      Atomic             Coordinates (Angstroms)
 Number     Number       Type             X           Y           Z
 ---------------------------------------------------------------------
      1          6           0       -0.953550   -0.980790   -3.485250
      2          6           0       -0.010610   -0.470000   -2.407530
      3          8           0        0.062190   -1.475910   -1.391900
      4          8           0        1.447400   -1.551000   -0.953120
      5          1           0        1.346170   -1.188230   -0.056670
      6          1           0       -1.945320   -1.207840   -3.061860
      7          1           0        1.000140   -0.316570   -2.817460
      8          1           0       -0.360850    0.487210   -1.973030
      9          1           0       -1.081450   -0.218980   -4.271990
     10          1           0       -0.548970   -1.899990   -3.935600
 ---------------------------------------------------------------------

 SCF Done:  E(RHF) =  -228.940427385     A.U. after   12 cycles
 E2 =    -0.9017825900D+00 EUMP2 =    -0.22984220997502D+03

 Alpha  occ. eigenvalues --  -20.61973 -20.61592 -11.28273 -11.22403  -1.46527
 Alpha  occ. eigenvalues --   -1.22342  -1.00297  -0.83957  -0.72013  -0.65749
 Alpha  occ. eigenvalues --   -0.62811  -0.61827  -0.54112  -0.52819  -0.49907
 Alpha  occ. eigenvalues --   -0.48799  -0.44529
 Alpha virt. eigenvalues --    0.11466   0.12842   0.16160   0.17123   0.18871
 Alpha virt. eigenvalues --    0.20665   0.22560   0.26990   0.27573   0.29830
 Alpha virt. eigenvalues --    0.30920   0.34714   0.37143   0.45150   0.46545

 Mulliken charges:
               1
     1  C   -0.205252
     2  C    0.150913
     3  O   -0.248076
     4  O   -0.296707
     5  H    0.278960
     6  H    0.074691
     7  H    0.061100
     8  H    0.039735
     9  H    0.060245
    10  H    0.084390
 Sum of Mulliken charges =   0.00000

 Dipole moment (field-independent basis, Debye):
    X=             -0.3172    Y=              1.8082    Z=              0.0758  Tot=              1.8374
 Quadrupole moment (field-independent basis, Debye-Ang):
   XX=            -25.9987   YY=            -29.8081   ZZ=            -20.8012
   XY=              1.2761   XZ=              2.4012   YZ=             -2.6662

 Normal termination of Gaussian 09 at Thu Dec 21 19:41:42 2017.
