 Gaussian 09, Revision D.01,
 Gaussian 09:  EM64L-G09RevD.01 24-Apr-2013

 ------------------------
 #P MP2/cc-pVQZ SP Nosymm
 ------------------------

 ------
 PEscan
 ------
 Symbolic Z-matrix:
 Charge =  0 Multiplicity = 1

                          Input orientation:
 ---------------------------------------------------------------------
 Center     Atomic      Atomic             Coordinates (Angstroms)
 Number     Number       Type             X           Y           Z
 ---------------------------------------------------------------------
      1          6           0       -0.666450   -1.101550   -3.304210
      2          6           0       -0.070990   -0.084070   -2.343180
      3          8           0        0.284960   -0.579700   -1.039600
      4          8           0        0.430560   -2.025210   -1.085520
      5          1           0        1.395060   -2.085030   -0.977550
      6          1           0       -1.546340   -1.597370   -2.866120
      7          1           0        0.828890    0.367100   -2.809490
      8          1           0       -0.786850    0.728430   -2.132830
      9          1           0       -0.978540   -0.570900   -4.219260
     10          1           0        0.064840   -1.873810   -3.576660
 ---------------------------------------------------------------------

 SCF Done:  E(RHF) =  -228.935593318     A.U. after   13 cycles
 E2 =    -0.9024181514D+00 EUMP2 =    -0.22983801146942D+03

 Alpha  occ. eigenvalues --  -20.61843 -20.61482 -11.28523 -11.22351  -1.46331
 Alpha  occ. eigenvalues --   -1.21948  -1.00875  -0.83402  -0.70912  -0.66654
 Alpha  occ. eigenvalues --   -0.64853  -0.59127  -0.54131  -0.53231  -0.50895
 Alpha  occ. eigenvalues --   -0.47998  -0.43919
 Alpha virt. eigenvalues --    0.10744   0.14048   0.14998   0.17294   0.18820
 Alpha virt. eigenvalues --    0.20855   0.21795   0.27234   0.28343   0.30565
 Alpha virt. eigenvalues --    0.31371   0.36991   0.37716   0.43660   0.44714

 Mulliken charges:
               1
     1  C   -0.216678
     2  C    0.138399
     3  O   -0.247051
     4  O   -0.294891
     5  H    0.277360
     6  H    0.083380
     7  H    0.036881
     8  H    0.066860
     9  H    0.074414
    10  H    0.081325
 Sum of Mulliken charges =   0.00000

 Dipole moment (field-independent basis, Debye):
    X=              1.0431    Y=              0.3229    Z=             -1.6013  Tot=              1.9381
 Quadrupole moment (field-independent basis, Debye-Ang):
   XX=            -21.6122   YY=            -25.2419   ZZ=            -20.4307
   XY=             -3.5317   XZ=             -0.6740   YZ=             -0.1376

 Normal termination of Gaussian 09 at Thu Dec 21 18:27:05 2017.
