 Gaussian 09, Revision D.01,
 Gaussian 09:  EM64L-G09RevD.01 24-Apr-2013

 ----------------------------
 #P CCSD(T)/cc-pVDZ SP Nosymm
 ----------------------------

 ------
 PEscan
 ------
 Symbolic Z-matrix:
 Charge =  0 Multiplicity = 1

                          Input orientation:
 ---------------------------------------------------------------------
 Center     Atomic      Atomic             Coordinates (Angstroms)
 Number     Number       Type             X           Y           Z
 ---------------------------------------------------------------------
      1          6           0       -0.555430   -1.072510   -3.538430
      2          6           0        0.005750   -0.227020   -2.403700
      3          8           0        0.991930   -0.958670   -1.664630
      4          8           0        0.413990   -1.253400   -0.357480
      5          1           0        0.447190   -2.223950   -0.398080
      6          1           0       -1.083320   -1.954590   -3.139870
      7          1           0        0.520810    0.664880   -2.804120
      8          1           0       -0.777670    0.109910   -1.708270
      9          1           0       -1.266060   -0.486160   -4.145210
     10          1           0        0.257960   -1.420600   -4.194640
 ---------------------------------------------------------------------

 SCF Done:  E(RHF) =  -228.850757945     A.U. after   14 cycles
 E2 =    -0.6700682824D+00 EUMP2 =    -0.22952082622718D+03
 CCSD(T)
 CCSD(T)= -0.22958182862D+03

 Alpha  occ. eigenvalues --  -20.61935 -20.61378 -11.28601 -11.23282  -1.46230
 Alpha  occ. eigenvalues --   -1.22157  -1.00553  -0.83856  -0.70860  -0.66428
 Alpha  occ. eigenvalues --   -0.63797  -0.57189  -0.56221  -0.53733  -0.49043
 Alpha  occ. eigenvalues --   -0.48645  -0.43524
 Alpha virt. eigenvalues --    0.17937   0.19720   0.23218   0.23725   0.26059
 Alpha virt. eigenvalues --    0.26979   0.29468   0.37646   0.39394   0.59135
 Alpha virt. eigenvalues --    0.61213   0.66092   0.74593   0.78168   0.80979

 Mulliken charges:
               1
     1  C   -0.076813
     2  C    0.185353
     3  O   -0.321966
     4  O   -0.194139
     5  H    0.201958
     6  H    0.034277
     7  H    0.041104
     8  H    0.050561
     9  H    0.033941
    10  H    0.045723
 Sum of Mulliken charges =   0.00000

 Dipole moment (field-independent basis, Debye):
    X=             -1.3474    Y=             -0.7993    Z=             -1.0635  Tot=              1.8935
 Quadrupole moment (field-independent basis, Debye-Ang):
   XX=            -26.9212   YY=            -19.7864   ZZ=            -21.3868
   XY=              0.5182   XZ=              1.8837   YZ=             -0.7586

 CCSD(T)/cc-pVDZ SP Nosymm\\PEscan\\0,1\C,0,-0.55543,-1.07251,-3.53843\
 Normal termination of Gaussian 09 at Thu Dec 21 20:14:14 2017.
