 Gaussian 09, Revision D.01,
 Gaussian 09:  EM64L-G09RevD.01 24-Apr-2013

 ----------------------------
 #P CCSD(T)/cc-pVDZ SP Nosymm
 ----------------------------

 ------
 PEscan
 ------
 Symbolic Z-matrix:
 Charge =  0 Multiplicity = 1

                          Input orientation:
 ---------------------------------------------------------------------
 Center     Atomic      Atomic             Coordinates (Angstroms)
 Number     Number       Type             X           Y           Z
 ---------------------------------------------------------------------
      1          6           0       -0.902850   -1.006910   -3.467940
      2          6           0       -0.071270   -0.376690   -2.361220
      3          8           0       -0.043390   -1.232140   -1.209600
      4          8           0        1.305220   -1.770720   -1.093910
      5          1           0        1.565680   -1.330830   -0.267290
      6          1           0       -1.919390   -1.224950   -3.104150
      7          1           0        0.963730   -0.185480   -2.683360
      8          1           0       -0.518730    0.580570   -2.033620
      9          1           0       -0.980070   -0.324080   -4.331080
     10          1           0       -0.443770   -1.950890   -3.802260
 ---------------------------------------------------------------------

 SCF Done:  E(RHF) =  -228.850906865     A.U. after   14 cycles
 E2 =    -0.6699425840D+00 EUMP2 =    -0.22952084944860D+03
 CCSD(T)
 CCSD(T)= -0.22958184481D+03

 Alpha  occ. eigenvalues --  -20.61936 -20.61358 -11.28651 -11.22802  -1.46310
 Alpha  occ. eigenvalues --   -1.22087  -1.00265  -0.83808  -0.71162  -0.65014
 Alpha  occ. eigenvalues --   -0.63770  -0.59821  -0.54561  -0.53049  -0.49013
 Alpha  occ. eigenvalues --   -0.48098  -0.43815
 Alpha virt. eigenvalues --    0.18636   0.19535   0.23518   0.23774   0.26273
 Alpha virt. eigenvalues --    0.26809   0.29615   0.37445   0.39666   0.59362
 Alpha virt. eigenvalues --    0.61118   0.66948   0.74621   0.77743   0.80079

 Mulliken charges:
               1
     1  C   -0.071945
     2  C    0.180813
     3  O   -0.323284
     4  O   -0.192860
     5  H    0.202305
     6  H    0.045515
     7  H    0.044662
     8  H    0.036380
     9  H    0.029237
    10  H    0.049177
 Sum of Mulliken charges =   0.00000

 Dipole moment (field-independent basis, Debye):
    X=              0.4713    Y=              1.8280    Z=             -0.1427  Tot=              1.8931
 Quadrupole moment (field-independent basis, Debye-Ang):
   XX=            -23.6982   YY=            -29.6090   ZZ=            -21.4122
   XY=              0.3893   XZ=              2.0586   YZ=             -2.9009

 CCSD(T)/cc-pVDZ SP Nosymm\\PEscan\\0,1\C,0,-0.90285,-1.00691,-3.46794\
 89\CCSD(T)=-229.5818448\RMSD=4.002e-09\PG=C01 [X(C2H6O2)]\\@
 Normal termination of Gaussian 09 at Thu Dec 21 20:36:37 2017.
