 Gaussian 09, Revision D.01,
 Gaussian 09:  EM64L-G09RevD.01 24-Apr-2013

 ------------------------
 #P MP2/cc-pVQZ SP Nosymm
 ------------------------

 ------
 PEscan
 ------
 Symbolic Z-matrix:
 Charge =  0 Multiplicity = 1

                          Input orientation:
 ---------------------------------------------------------------------
 Center     Atomic      Atomic             Coordinates (Angstroms)
 Number     Number       Type             X           Y           Z
 ---------------------------------------------------------------------
      1          6           0        0.016180   -0.036410    0.045590
      2          6           0        0.126630    0.217070    1.540390
      3          8           0        1.491910   -0.003530    1.873080
      4          8           0        1.633310    0.309490    3.284100
      5          1           0        1.447720   -0.566910    3.665270
      6          1           0        0.318410   -1.067390   -0.196400
      7          1           0       -0.161720    1.251530    1.799610
      8          1           0       -0.523870   -0.476160    2.111080
      9          1           0       -1.024280    0.112090   -0.284670
     10          1           0        0.665600    0.658370   -0.509120
 ---------------------------------------------------------------------

 SCF Done:  E(RHF) =  -228.943352083     A.U. after   12 cycles
 E2 =    -0.9020231098D+00 EUMP2 =    -0.22984537519253D+03

 Alpha  occ. eigenvalues --  -20.62004 -20.61974 -11.28654 -11.22792  -1.46995
 Alpha  occ. eigenvalues --   -1.22591  -1.00570  -0.84331  -0.72151  -0.66483
 Alpha  occ. eigenvalues --   -0.63276  -0.61518  -0.54411  -0.52568  -0.50572
 Alpha  occ. eigenvalues --   -0.48573  -0.45373
 Alpha virt. eigenvalues --    0.10914   0.12804   0.16035   0.17113   0.18830
 Alpha virt. eigenvalues --    0.20816   0.22925   0.26697   0.27276   0.30284
 Alpha virt. eigenvalues --    0.31628   0.35561   0.36924   0.44578   0.46036

 Mulliken charges:
               1
     1  C   -0.213287
     2  C    0.171841
     3  O   -0.229973
     4  O   -0.302519
     5  H    0.275646
     6  H    0.078534
     7  H    0.054796
     8  H    0.011690
     9  H    0.066119
    10  H    0.087153
 Sum of Mulliken charges =   0.00000

 Dipole moment (field-independent basis, Debye):
    X=             -2.0384    Y=             -1.1936    Z=             -0.0843  Tot=              2.3637
 Quadrupole moment (field-independent basis, Debye-Ang):
   XX=            -29.7903   YY=            -24.3063   ZZ=            -23.3101
   XY=             -2.1033   XZ=             -3.6900   YZ=             -5.3688

 Normal termination of Gaussian 09 at Thu Dec 21 01:29:42 2017.
