 Gaussian 09, Revision D.01,
 Gaussian 09:  EM64L-G09RevD.01 24-Apr-2013

 ----------------------------
 #P CCSD(T)/cc-pVDZ SP Nosymm
 ----------------------------

 ------
 PEscan
 ------
 Symbolic Z-matrix:
 Charge =  0 Multiplicity = 1

                          Input orientation:
 ---------------------------------------------------------------------
 Center     Atomic      Atomic             Coordinates (Angstroms)
 Number     Number       Type             X           Y           Z
 ---------------------------------------------------------------------
      1          6           0        0.010230   -0.016560    0.059740
      2          6           0        0.206470    0.113440    1.561220
      3          8           0        1.589560   -0.072700    1.795190
      4          8           0        1.847980    0.030590    3.230910
      5          1           0        0.948950    0.035860    3.603920
      6          1           0        0.337960   -1.009990   -0.282370
      7          1           0       -0.114830    1.112850    1.919460
      8          1           0       -0.380140   -0.660110    2.101480
      9          1           0       -1.053800    0.114280   -0.192990
     10          1           0        0.597510    0.750480   -0.467620
 ---------------------------------------------------------------------

 SCF Done:  E(RHF) =  -228.844559703     A.U. after   14 cycles
 E2 =    -0.6713869790D+00 EUMP2 =    -0.22951594668208D+03
 CCSD(T)
 CCSD(T)= -0.22957660164D+03

 Alpha  occ. eigenvalues --  -20.61980 -20.61945 -11.30214 -11.24174  -1.46715
 Alpha  occ. eigenvalues --   -1.22971  -1.01431  -0.85788  -0.70314  -0.68107
 Alpha  occ. eigenvalues --   -0.63195  -0.58313  -0.56415  -0.53242  -0.51051
 Alpha  occ. eigenvalues --   -0.50488  -0.43122
 Alpha virt. eigenvalues --    0.17472   0.18301   0.23119   0.23418   0.25950
 Alpha virt. eigenvalues --    0.27713   0.28055   0.36842   0.38610   0.58628
 Alpha virt. eigenvalues --    0.62259   0.66737   0.73604   0.74862   0.77916

 Mulliken charges:
               1
     1  C   -0.062945
     2  C    0.129391
     3  O   -0.289282
     4  O   -0.177331
     5  H    0.183155
     6  H    0.056801
     7  H    0.035315
     8  H    0.027447
     9  H    0.039807
    10  H    0.057642
 Sum of Mulliken charges =   0.00000

 Dipole moment (field-independent basis, Debye):
    X=             -3.3432    Y=              0.2292    Z=             -0.1238  Tot=              3.3533
 Quadrupole moment (field-independent basis, Debye-Ang):
   XX=            -33.0027   YY=            -25.1707   ZZ=            -23.0877
   XY=              0.2002   XZ=             -8.2876   YZ=              0.3916

 CCSD(T)/cc-pVDZ SP Nosymm\\PEscan\\0,1\C,0,0.01023,-0.01656,0.05974\C,
 \MP4DQ=-229.5509329\MP4SDQ=-229.5563913\CCSD=-229.5567044\CCSD(T)=-229
 Normal termination of Gaussian 09 at Thu Dec 21 02:43:38 2017.
