 Gaussian 09, Revision D.01,
 Gaussian 09:  EM64L-G09RevD.01 24-Apr-2013

 ------------------------
 #P MP2/cc-pVQZ SP Nosymm
 ------------------------

 ------
 PEscan
 ------
 Symbolic Z-matrix:
 Charge =  0 Multiplicity = 1

                          Input orientation:
 ---------------------------------------------------------------------
 Center     Atomic      Atomic             Coordinates (Angstroms)
 Number     Number       Type             X           Y           Z
 ---------------------------------------------------------------------
      1          6           0        0.027340   -0.004230    0.024410
      2          6           0        0.010370    0.017160    1.544150
      3          8           0        1.368630    0.035110    1.949230
      4          8           0        1.303750    0.001810    3.415040
      5          1           0        2.195920    0.345280    3.585360
      6          1           0        0.551500   -0.900020   -0.343460
      7          1           0       -0.511500    0.911830    1.932030
      8          1           0       -0.489860   -0.880530    1.952700
      9          1           0       -1.004630   -0.016530   -0.360890
     10          1           0        0.538370    0.888260   -0.369650
 ---------------------------------------------------------------------

 SCF Done:  E(RHF) =  -228.942771133     A.U. after   13 cycles
 E2 =    -0.9026080730D+00 EUMP2 =    -0.22984537920569D+03

 Alpha  occ. eigenvalues --  -20.61824 -20.61761 -11.28159 -11.22516  -1.46369
 Alpha  occ. eigenvalues --   -1.22815  -1.00148  -0.83900  -0.70278  -0.67106
 Alpha  occ. eigenvalues --   -0.65459  -0.58303  -0.54383  -0.53394  -0.50312
 Alpha  occ. eigenvalues --   -0.49968  -0.43430
 Alpha virt. eigenvalues --    0.11612   0.13157   0.15908   0.17248   0.18695
 Alpha virt. eigenvalues --    0.21113   0.22696   0.26995   0.27049   0.30867
 Alpha virt. eigenvalues --    0.31038   0.35820   0.37305   0.45672   0.46494

 Mulliken charges:
               1
     1  C   -0.215077
     2  C    0.177175
     3  O   -0.246607
     4  O   -0.300424
     5  H    0.272663
     6  H    0.081838
     7  H    0.040681
     8  H    0.044267
     9  H    0.066983
    10  H    0.078502
 Sum of Mulliken charges =   0.00000

 Dipole moment (field-independent basis, Debye):
    X=             -0.1662    Y=              0.5638    Z=             -0.4622  Tot=              0.7477
 Quadrupole moment (field-independent basis, Debye-Ang):
   XX=            -22.1689   YY=            -25.0332   ZZ=            -26.1462
   XY=              1.5343   XZ=              2.7296   YZ=              2.2097

 Normal termination of Gaussian 09 at Wed Dec 20 22:56:17 2017.
