 Gaussian 09, Revision D.01,
 Gaussian 09:  EM64L-G09RevD.01 24-Apr-2013

 ----------------------------
 #P CCSD(T)/cc-pVDZ SP Nosymm
 ----------------------------

 ------
 PEscan
 ------
 Symbolic Z-matrix:
 Charge =  0 Multiplicity = 1

                          Input orientation:
 ---------------------------------------------------------------------
 Center     Atomic      Atomic             Coordinates (Angstroms)
 Number     Number       Type             X           Y           Z
 ---------------------------------------------------------------------
      1          6           0        0.020810   -0.035140    0.032940
      2          6           0        0.067350    0.222750    1.530410
      3          8           0        1.401390   -0.054490    1.930750
      4          8           0        1.447600    0.272060    3.355330
      5          1           0        1.855100   -0.551990    3.669750
      6          1           0        0.283720   -1.081460   -0.188890
      7          1           0       -0.183380    1.273670    1.764140
      8          1           0       -0.638280   -0.431030    2.077110
      9          1           0       -0.993710    0.160430   -0.349400
     10          1           0        0.729280    0.623340   -0.493200
 ---------------------------------------------------------------------

 SCF Done:  E(RHF) =  -228.855003911     A.U. after   14 cycles
 E2 =    -0.6703777372D+00 EUMP2 =    -0.22952538164856D+03
 CCSD(T)
 CCSD(T)= -0.22958595443D+03

 Alpha  occ. eigenvalues --  -20.61758 -20.61682 -11.28621 -11.23253  -1.46428
 Alpha  occ. eigenvalues --   -1.22578  -1.00214  -0.83789  -0.70838  -0.65707
 Alpha  occ. eigenvalues --   -0.64738  -0.59307  -0.53824  -0.52553  -0.49931
 Alpha  occ. eigenvalues --   -0.48996  -0.43615
 Alpha virt. eigenvalues --    0.18531   0.19244   0.23624   0.24437   0.25865
 Alpha virt. eigenvalues --    0.28196   0.29009   0.36385   0.40066   0.59474
 Alpha virt. eigenvalues --    0.61822   0.67987   0.74267   0.76397   0.82734

 Mulliken charges:
               1
     1  C   -0.088596
     2  C    0.203585
     3  O   -0.319954
     4  O   -0.194836
     5  H    0.201016
     6  H    0.046205
     7  H    0.037582
     8  H    0.024939
     9  H    0.038453
    10  H    0.051606
 Sum of Mulliken charges =   0.00000

 Dipole moment (field-independent basis, Debye):
    X=             -1.0040    Y=             -1.1269    Z=             -0.1318  Tot=              1.5150
 Quadrupole moment (field-independent basis, Debye-Ang):
   XX=            -25.7535   YY=            -24.3095   ZZ=            -23.6674
   XY=             -2.6388   XZ=              0.1323   YZ=             -5.1456

 CCSD(T)/cc-pVDZ SP Nosymm\\PEscan\\0,1\C,0,0.02081,-0.03514,0.03294\C,
 MP4DQ=-229.5606102\MP4SDQ=-229.5659629\CCSD=-229.5663668\CCSD(T)=-229.
 Normal termination of Gaussian 09 at Thu Dec 21 02:55:23 2017.
