 Gaussian 09, Revision D.01,
 Gaussian 09:  EM64L-G09RevD.01 24-Apr-2013

 ----------------------------
 #P CCSD(T)/cc-pVDZ SP Nosymm
 ----------------------------

 ------
 PEscan
 ------
 Symbolic Z-matrix:
 Charge =  0 Multiplicity = 1

                          Input orientation:
 ---------------------------------------------------------------------
 Center     Atomic      Atomic             Coordinates (Angstroms)
 Number     Number       Type             X           Y           Z
 ---------------------------------------------------------------------
      1          6           0        0.018160    0.005190    0.051650
      2          6           0        0.146790   -0.000970    1.565980
      3          8           0        1.530080   -0.159530    1.843590
      4          8           0        1.679620   -0.229920    3.285330
      5          1           0        1.312770    0.634610    3.548210
      6          1           0        0.378260   -0.947980   -0.365020
      7          1           0       -0.220550    0.956490    1.994570
      8          1           0       -0.430090   -0.826020    2.022610
      9          1           0       -1.036540    0.141320   -0.235660
     10          1           0        0.611400    0.824940   -0.382330
 ---------------------------------------------------------------------

 SCF Done:  E(RHF) =  -228.851564614     A.U. after   14 cycles
 E2 =    -0.6709296390D+00 EUMP2 =    -0.22952249425311D+03
 CCSD(T)
 CCSD(T)= -0.22958311144D+03

 Alpha  occ. eigenvalues --  -20.62061 -20.61961 -11.29552 -11.23799  -1.47153
 Alpha  occ. eigenvalues --   -1.22617  -1.00969  -0.84928  -0.71565  -0.66869
 Alpha  occ. eigenvalues --   -0.62480  -0.61001  -0.54767  -0.52547  -0.50474
 Alpha  occ. eigenvalues --   -0.49188  -0.44364
 Alpha virt. eigenvalues --    0.17362   0.18643   0.23489   0.24024   0.26398
 Alpha virt. eigenvalues --    0.28302   0.28480   0.36771   0.39391   0.58813
 Alpha virt. eigenvalues --    0.61173   0.67516   0.74275   0.75882   0.81965

 Mulliken charges:
               1
     1  C   -0.080101
     2  C    0.165840
     3  O   -0.296037
     4  O   -0.183027
     5  H    0.191650
     6  H    0.056231
     7  H    0.013208
     8  H    0.041881
     9  H    0.039168
    10  H    0.051186
 Sum of Mulliken charges =   0.00000

 Dipole moment (field-independent basis, Debye):
    X=             -2.4211    Y=              1.6028    Z=             -0.2292  Tot=              2.9126
 Quadrupole moment (field-independent basis, Debye-Ang):
   XX=            -30.6534   YY=            -24.1652   ZZ=            -24.3433
   XY=              2.3996   XZ=             -5.1303   YZ=              5.7550

 CCSD(T)/cc-pVDZ SP Nosymm\\PEscan\\0,1\C,0,0.01816,0.00519,0.05165\C,0
 95\MP4DQ=-229.5576533\MP4SDQ=-229.5630737\CCSD=-229.5634139\CCSD(T)=-2
 Normal termination of Gaussian 09 at Thu Dec 21 02:36:54 2017.
