 Gaussian 09, Revision D.01,
 Gaussian 09:  EM64L-G09RevD.01 24-Apr-2013

 ------------------------
 #P MP2/cc-pVQZ SP Nosymm
 ------------------------

 ------
 PEscan
 ------
 Symbolic Z-matrix:
 Charge =  0 Multiplicity = 1

                          Input orientation:
 ---------------------------------------------------------------------
 Center     Atomic      Atomic             Coordinates (Angstroms)
 Number     Number       Type             X           Y           Z
 ---------------------------------------------------------------------
      1          6           0        0.025620   -0.026680    0.025010
      2          6           0        0.030540    0.199190    1.528050
      3          8           0        1.317910   -0.186460    1.976830
      4          8           0        1.269720    0.049890    3.425510
      5          1           0        2.175000   -0.238890    3.624990
      6          1           0        0.214760   -1.086350   -0.207470
      7          1           0       -0.151430    1.261180    1.777490
      8          1           0       -0.741270   -0.412800    2.030980
      9          1           0       -0.954170    0.255400   -0.392110
     10          1           0        0.803210    0.583660   -0.460350
 ---------------------------------------------------------------------

 SCF Done:  E(RHF) =  -228.942618833     A.U. after   11 cycles
 E2 =    -0.9026559486D+00 EUMP2 =    -0.22984527478131D+03

 Alpha  occ. eigenvalues --  -20.61817 -20.61751 -11.28138 -11.22510  -1.46342
 Alpha  occ. eigenvalues --   -1.22837  -1.00133  -0.83908  -0.69843  -0.67618
 Alpha  occ. eigenvalues --   -0.65452  -0.57845  -0.54666  -0.53494  -0.50328
 Alpha  occ. eigenvalues --   -0.50004  -0.43287
 Alpha virt. eigenvalues --    0.11646   0.13170   0.15912   0.17268   0.18686
 Alpha virt. eigenvalues --    0.21139   0.22663   0.26947   0.27063   0.30952
 Alpha virt. eigenvalues --    0.31027   0.35715   0.37463   0.45488   0.46447

 Mulliken charges:
               1
     1  C   -0.215539
     2  C    0.177463
     3  O   -0.247653
     4  O   -0.297984
     5  H    0.270061
     6  H    0.079981
     7  H    0.043108
     8  H    0.043107
     9  H    0.067478
    10  H    0.079979
 Sum of Mulliken charges =   0.00000

 Dipole moment (field-independent basis, Debye):
    X=             -0.0553    Y=             -0.0509    Z=             -0.4648  Tot=              0.4708
 Quadrupole moment (field-independent basis, Debye-Ang):
   XX=            -21.9097   YY=            -25.2505   ZZ=            -25.9371
   XY=             -0.7438   XZ=              3.0581   YZ=             -1.1583

 Normal termination of Gaussian 09 at Thu Dec 21 02:24:08 2017.
