 Gaussian 09, Revision D.01,
 Gaussian 09:  EM64L-G09RevD.01 24-Apr-2013

 ------------------------
 #P MP2/cc-pVQZ SP Nosymm
 ------------------------

 ------
 PEscan
 ------
 Symbolic Z-matrix:
 Charge =  0 Multiplicity = 1

                          Input orientation:
 ---------------------------------------------------------------------
 Center     Atomic      Atomic             Coordinates (Angstroms)
 Number     Number       Type             X           Y           Z
 ---------------------------------------------------------------------
      1          6           0        0.026020    0.002410    0.029820
      2          6           0        0.033690   -0.003530    1.550010
      3          8           0        1.400530   -0.061460    1.931050
      4          8           0        1.386180   -0.144220    3.390890
      5          1           0        2.022550    0.567040    3.572860
      6          1           0        0.500060   -0.911300   -0.361040
      7          1           0       -0.438470    0.908360    1.961980
      8          1           0       -0.504510   -0.882270    1.950120
      9          1           0       -1.010990    0.047820   -0.339280
     10          1           0        0.574840    0.875280   -0.357500
 ---------------------------------------------------------------------

 SCF Done:  E(RHF) =  -228.943422823     A.U. after   13 cycles
 E2 =    -0.9023488497D+00 EUMP2 =    -0.22984577167301D+03

 Alpha  occ. eigenvalues --  -20.61865 -20.61819 -11.28272 -11.22569  -1.46546
 Alpha  occ. eigenvalues --   -1.22717  -1.00241  -0.83925  -0.71336  -0.66072
 Alpha  occ. eigenvalues --   -0.65168  -0.59714  -0.54084  -0.52859  -0.50292
 Alpha  occ. eigenvalues --   -0.49528  -0.44163
 Alpha virt. eigenvalues --    0.11418   0.13074   0.15900   0.17190   0.18734
 Alpha virt. eigenvalues --    0.21007   0.22835   0.26976   0.27178   0.30602
 Alpha virt. eigenvalues --    0.31057   0.35997   0.37201   0.46020   0.46505

 Mulliken charges:
               1
     1  C   -0.214099
     2  C    0.176427
     3  O   -0.242711
     4  O   -0.308226
     5  H    0.281081
     6  H    0.084124
     7  H    0.032738
     8  H    0.047311
     9  H    0.065959
    10  H    0.077395
 Sum of Mulliken charges =   0.00000

 Dipole moment (field-independent basis, Debye):
    X=             -0.6334    Y=              1.2790    Z=             -0.4164  Tot=              1.4867
 Quadrupole moment (field-independent basis, Debye-Ang):
   XX=            -24.3145   YY=            -24.4135   ZZ=            -25.9218
   XY=              2.9187   XZ=              1.0440   YZ=              4.7730

 Normal termination of Gaussian 09 at Wed Dec 20 23:14:58 2017.
