 Gaussian 09, Revision D.01,
 Gaussian 09:  EM64L-G09RevD.01 24-Apr-2013

 ------------------------
 #P MP2/cc-pVQZ SP Nosymm
 ------------------------

 ------
 PEscan
 ------
 Symbolic Z-matrix:
 Charge =  0 Multiplicity = 1

                          Input orientation:
 ---------------------------------------------------------------------
 Center     Atomic      Atomic             Coordinates (Angstroms)
 Number     Number       Type             X           Y           Z
 ---------------------------------------------------------------------
      1          6           0        0.011900   -0.029680    0.057470
      2          6           0        0.188310    0.179550    1.552320
      3          8           0        1.566820   -0.020240    1.819600
      4          8           0        1.781000    0.213380    3.237410
      5          1           0        1.080400   -0.342900    3.626060
      6          1           0        0.335450   -1.042000   -0.229890
      7          1           0       -0.118380    1.196110    1.861930
      8          1           0       -0.420020   -0.555160    2.124100
      9          1           0       -1.047450    0.095280   -0.217390
     10          1           0        0.611860    0.703800   -0.502670
 ---------------------------------------------------------------------

 SCF Done:  E(RHF) =  -228.939180173     A.U. after   13 cycles
 E2 =    -0.9025730415D+00 EUMP2 =    -0.22984175321412D+03

 Alpha  occ. eigenvalues --  -20.62118 -20.62062 -11.29368 -11.23192  -1.47138
 Alpha  occ. eigenvalues --   -1.22730  -1.01102  -0.85259  -0.71744  -0.67461
 Alpha  occ. eigenvalues --   -0.63131  -0.60815  -0.55281  -0.52978  -0.50867
 Alpha  occ. eigenvalues --   -0.50139  -0.44526
 Alpha virt. eigenvalues --    0.10552   0.12512   0.16079   0.17046   0.18851
 Alpha virt. eigenvalues --    0.20597   0.22653   0.26066   0.26811   0.29914
 Alpha virt. eigenvalues --    0.33545   0.34579   0.36259   0.44218   0.45283

 Mulliken charges:
               1
     1  C   -0.209816
     2  C    0.166248
     3  O   -0.214175
     4  O   -0.293590
     5  H    0.263239
     6  H    0.084088
     7  H    0.054166
     8  H   -0.006355
     9  H    0.066759
    10  H    0.089436
 Sum of Mulliken charges =   0.00000

 Dipole moment (field-independent basis, Debye):
    X=             -2.9099    Y=             -0.6447    Z=             -0.1447  Tot=              2.9840
 Quadrupole moment (field-independent basis, Debye-Ang):
   XX=            -32.1620   YY=            -24.9119   ZZ=            -23.4070
   XY=             -0.8664   XZ=             -6.9241   YZ=             -3.1398

 Normal termination of Gaussian 09 at Thu Dec 21 01:05:28 2017.
