 Gaussian 09, Revision D.01,
 Gaussian 09:  EM64L-G09RevD.01 24-Apr-2013

 ------------------------
 #P MP2/cc-pVQZ SP Nosymm
 ------------------------

 ------
 PEscan
 ------
 Symbolic Z-matrix:
 Charge =  0 Multiplicity = 1

                          Input orientation:
 ---------------------------------------------------------------------
 Center     Atomic      Atomic             Coordinates (Angstroms)
 Number     Number       Type             X           Y           Z
 ---------------------------------------------------------------------
      1          6           0        0.011610   -0.007260    0.058940
      2          6           0        0.199150    0.064300    1.565450
      3          8           0        1.582290   -0.121510    1.799380
      4          8           0        1.835430   -0.053770    3.238150
      5          1           0        0.982940    0.263820    3.584310
      6          1           0        0.338400   -0.988300   -0.318050
      7          1           0       -0.124800    1.053430    1.954090
      8          1           0       -0.388660   -0.724780    2.077540
      9          1           0       -1.050690    0.135190   -0.194780
     10          1           0        0.604240    0.777020   -0.436090
 ---------------------------------------------------------------------

 SCF Done:  E(RHF) =  -228.934054291     A.U. after   12 cycles
 E2 =    -0.9031189045D+00 EUMP2 =    -0.22983717319579D+03

 Alpha  occ. eigenvalues --  -20.62088 -20.61973 -11.29820 -11.23447  -1.46720
 Alpha  occ. eigenvalues --   -1.23015  -1.01413  -0.85853  -0.70650  -0.68446
 Alpha  occ. eigenvalues --   -0.63619  -0.58670  -0.56730  -0.53554  -0.51287
 Alpha  occ. eigenvalues --   -0.50857  -0.43656
 Alpha virt. eigenvalues --    0.10571   0.12429   0.15948   0.16891   0.18403
 Alpha virt. eigenvalues --    0.20436   0.22270   0.25422   0.26323   0.29737
 Alpha virt. eigenvalues --    0.33586   0.34867   0.36591   0.44735   0.45419

 Mulliken charges:
               1
     1  C   -0.207417
     2  C    0.144928
     3  O   -0.209406
     4  O   -0.285483
     5  H    0.253699
     6  H    0.090580
     7  H    0.019421
     8  H    0.036554
     9  H    0.067479
    10  H    0.089645
 Sum of Mulliken charges =   0.00000

 Dipole moment (field-independent basis, Debye):
    X=             -3.1994    Y=              0.7020    Z=             -0.2620  Tot=              3.2860
 Quadrupole moment (field-independent basis, Debye-Ang):
   XX=            -32.7582   YY=            -25.1118   ZZ=            -24.0314
   XY=              0.7640   XZ=             -7.9905   YZ=              2.2975

 Normal termination of Gaussian 09 at Thu Dec 21 00:28:48 2017.
