 Gaussian 09, Revision D.01,
 Gaussian 09:  EM64L-G09RevD.01 24-Apr-2013

 ----------------------------
 #P CCSD(T)/cc-pVDZ SP Nosymm
 ----------------------------

 ------
 PEscan
 ------
 Symbolic Z-matrix:
 Charge =  0 Multiplicity = 1

                          Input orientation:
 ---------------------------------------------------------------------
 Center     Atomic      Atomic             Coordinates (Angstroms)
 Number     Number       Type             X           Y           Z
 ---------------------------------------------------------------------
      1          6           0        0.015500    0.002270    0.056900
      2          6           0        0.175420    0.014610    1.568070
      3          8           0        1.558920   -0.158120    1.821060
      4          8           0        1.755390   -0.172450    3.262850
      5          1           0        1.138380    0.526880    3.547620
      6          1           0        0.353930   -0.961570   -0.353080
      7          1           0       -0.168930    0.985260    1.988470
      8          1           0       -0.407640   -0.795680    2.045920
      9          1           0       -1.042910    0.149120   -0.210520
     10          1           0        0.611840    0.807830   -0.398360
 ---------------------------------------------------------------------

 SCF Done:  E(RHF) =  -228.848371890     A.U. after   14 cycles
 E2 =    -0.6712931814D+00 EUMP2 =    -0.22951966507119D+03
 CCSD(T)
 CCSD(T)= -0.22958029192D+03

 Alpha  occ. eigenvalues --  -20.62038 -20.61992 -11.29926 -11.24009  -1.47051
 Alpha  occ. eigenvalues --   -1.22766  -1.01235  -0.85411  -0.71114  -0.67404
 Alpha  occ. eigenvalues --   -0.62894  -0.59935  -0.55333  -0.52856  -0.50545
 Alpha  occ. eigenvalues --   -0.50237  -0.43719
 Alpha virt. eigenvalues --    0.17319   0.18458   0.23367   0.23743   0.26311
 Alpha virt. eigenvalues --    0.28022   0.28349   0.36940   0.38978   0.58662
 Alpha virt. eigenvalues --    0.61585   0.67177   0.73568   0.75569   0.79911

 Mulliken charges:
               1
     1  C   -0.073106
     2  C    0.148765
     3  O   -0.291384
     4  O   -0.179589
     5  H    0.187167
     6  H    0.057291
     7  H    0.016174
     8  H    0.041258
     9  H    0.039559
    10  H    0.053865
 Sum of Mulliken charges =   0.00000

 Dipole moment (field-independent basis, Debye):
    X=             -2.8546    Y=              1.3298    Z=             -0.2351  Tot=              3.1579
 Quadrupole moment (field-independent basis, Debye-Ang):
   XX=            -31.8179   YY=            -24.5072   ZZ=            -24.1525
   XY=              1.7522   XZ=             -6.6524   YZ=              4.6943

 CCSD(T)/cc-pVDZ SP Nosymm\\PEscan\\0,1\C,0,0.0155,0.00227,0.0569\C,0,0
 \MP4DQ=-229.5547146\MP4SDQ=-229.5601666\CCSD=-229.5604863\CCSD(T)=-229
 Normal termination of Gaussian 09 at Thu Dec 21 02:38:52 2017.
