 Gaussian 09, Revision D.01,
 Gaussian 09:  EM64L-G09RevD.01 24-Apr-2013

 ------------------------
 #P MP2/cc-pVQZ SP Nosymm
 ------------------------

 ------
 PEscan
 ------
 Symbolic Z-matrix:
 Charge =  0 Multiplicity = 1

                          Input orientation:
 ---------------------------------------------------------------------
 Center     Atomic      Atomic             Coordinates (Angstroms)
 Number     Number       Type             X           Y           Z
 ---------------------------------------------------------------------
      1          6           0        0.019560    0.006120    0.048410
      2          6           0        0.129180   -0.006410    1.564320
      3          8           0        1.511560   -0.157360    1.856890
      4          8           0        1.638290   -0.245260    3.299190
      5          1           0        1.416430    0.669820    3.551570
      6          1           0        0.393890   -0.941360   -0.368840
      7          1           0       -0.250930    0.944300    1.994580
      8          1           0       -0.445210   -0.839050    2.009190
      9          1           0       -1.032760    0.133710   -0.251420
     10          1           0        0.609870    0.833630   -0.374960
 ---------------------------------------------------------------------

 SCF Done:  E(RHF) =  -228.941839307     A.U. after   13 cycles
 E2 =    -0.9021757049D+00 EUMP2 =    -0.22984401501238D+03

 Alpha  occ. eigenvalues --  -20.62077 -20.62046 -11.28984 -11.22979  -1.47151
 Alpha  occ. eigenvalues --   -1.22620  -1.00825  -0.84759  -0.72105  -0.66939
 Alpha  occ. eigenvalues --   -0.62747  -0.61722  -0.54770  -0.52695  -0.50747
 Alpha  occ. eigenvalues --   -0.49143  -0.45137
 Alpha virt. eigenvalues --    0.10684   0.12639   0.16122   0.17068   0.18881
 Alpha virt. eigenvalues --    0.20713   0.22825   0.26426   0.27097   0.30111
 Alpha virt. eigenvalues --    0.32454   0.35116   0.36501   0.44235   0.45751

 Mulliken charges:
               1
     1  C   -0.211652
     2  C    0.168124
     3  O   -0.221347
     4  O   -0.297238
     5  H    0.269306
     6  H    0.088372
     7  H   -0.000603
     8  H    0.057529
     9  H    0.066499
    10  H    0.081008
 Sum of Mulliken charges =   0.00000

 Dipole moment (field-independent basis, Debye):
    X=             -2.1327    Y=              1.6354    Z=             -0.3121  Tot=              2.7056
 Quadrupole moment (field-independent basis, Debye-Ang):
   XX=            -30.0046   YY=            -24.0663   ZZ=            -25.0001
   XY=              2.5994   XZ=             -4.2555   YZ=              5.9753

 Normal termination of Gaussian 09 at Wed Dec 20 23:51:46 2017.
