 Gaussian 09, Revision D.01,
 Gaussian 09:  EM64L-G09RevD.01 24-Apr-2013

 ----------------------------
 #P CCSD(T)/cc-pVDZ SP Nosymm
 ----------------------------

 ------
 PEscan
 ------
 Symbolic Z-matrix:
 Charge =  0 Multiplicity = 1

                          Input orientation:
 ---------------------------------------------------------------------
 Center     Atomic      Atomic             Coordinates (Angstroms)
 Number     Number       Type             X           Y           Z
 ---------------------------------------------------------------------
      1          6           0        0.011900   -0.029680    0.057470
      2          6           0        0.188310    0.179550    1.552320
      3          8           0        1.566820   -0.020240    1.819600
      4          8           0        1.781000    0.213380    3.237410
      5          1           0        1.080400   -0.342900    3.626060
      6          1           0        0.335450   -1.042000   -0.229890
      7          1           0       -0.118380    1.196110    1.861930
      8          1           0       -0.420020   -0.555160    2.124100
      9          1           0       -1.047450    0.095280   -0.217390
     10          1           0        0.611860    0.703800   -0.502670
 ---------------------------------------------------------------------

 SCF Done:  E(RHF) =  -228.850025822     A.U. after   14 cycles
 E2 =    -0.6711325618D+00 EUMP2 =    -0.22952115838351D+03
 CCSD(T)
 CCSD(T)= -0.22958177874D+03

 Alpha  occ. eigenvalues --  -20.62057 -20.61985 -11.29748 -11.23910  -1.47129
 Alpha  occ. eigenvalues --   -1.22686  -1.01110  -0.85182  -0.71368  -0.67136
 Alpha  occ. eigenvalues --   -0.62703  -0.60485  -0.55031  -0.52692  -0.50522
 Alpha  occ. eigenvalues --   -0.49744  -0.44032
 Alpha virt. eigenvalues --    0.17310   0.18549   0.23436   0.23891   0.26381
 Alpha virt. eigenvalues --    0.28167   0.28425   0.36876   0.39185   0.58726
 Alpha virt. eigenvalues --    0.61343   0.67358   0.73873   0.75742   0.80942

 Mulliken charges:
               1
     1  C   -0.076818
     2  C    0.157198
     3  O   -0.293305
     4  O   -0.181110
     5  H    0.189304
     6  H    0.052549
     7  H    0.041818
     8  H    0.014175
     9  H    0.039375
    10  H    0.056814
 Sum of Mulliken charges =   0.00000

 Dipole moment (field-independent basis, Debye):
    X=             -2.9703    Y=             -0.6666    Z=             -0.0500  Tot=              3.0446
 Quadrupole moment (field-independent basis, Debye-Ang):
   XX=            -32.1837   YY=            -24.8252   ZZ=            -22.8072
   XY=             -0.9643   XZ=             -6.9440   YZ=             -3.1711

 CCSD(T)/cc-pVDZ SP Nosymm\\PEscan\\0,1\C,0,0.0119,-0.02968,0.05747\C,0
 -229.5562599\MP4SDQ=-229.561698\CCSD=-229.5620267\CCSD(T)=-229.5817787
 Normal termination of Gaussian 09 at Thu Dec 21 02:47:25 2017.
