 Gaussian 09, Revision D.01,
 Gaussian 09:  EM64L-G09RevD.01 24-Apr-2013

 ----------------------------
 #P CCSD(T)/cc-pVDZ SP Nosymm
 ----------------------------

 ------
 PEscan
 ------
 Symbolic Z-matrix:
 Charge =  0 Multiplicity = 1

                          Input orientation:
 ---------------------------------------------------------------------
 Center     Atomic      Atomic             Coordinates (Angstroms)
 Number     Number       Type             X           Y           Z
 ---------------------------------------------------------------------
      1          6           0        0.019560    0.006120    0.048410
      2          6           0        0.129180   -0.006410    1.564320
      3          8           0        1.511560   -0.157360    1.856890
      4          8           0        1.638290   -0.245260    3.299190
      5          1           0        1.416430    0.669820    3.551570
      6          1           0        0.393890   -0.941360   -0.368840
      7          1           0       -0.250930    0.944300    1.994580
      8          1           0       -0.445210   -0.839050    2.009190
      9          1           0       -1.032760    0.133710   -0.251420
     10          1           0        0.609870    0.833630   -0.374960
 ---------------------------------------------------------------------

 SCF Done:  E(RHF) =  -228.852865944     A.U. after   14 cycles
 E2 =    -0.6707262629D+00 EUMP2 =    -0.22952359220677D+03
 CCSD(T)
 CCSD(T)= -0.22958420911D+03

 Alpha  occ. eigenvalues --  -20.62045 -20.61925 -11.29357 -11.23689  -1.47124
 Alpha  occ. eigenvalues --   -1.22563  -1.00825  -0.84673  -0.71690  -0.66611
 Alpha  occ. eigenvalues --   -0.62295  -0.61419  -0.54539  -0.52431  -0.50403
 Alpha  occ. eigenvalues --   -0.48645  -0.44671
 Alpha virt. eigenvalues --    0.17480   0.18732   0.23522   0.24130   0.26368
 Alpha virt. eigenvalues --    0.28384   0.28548   0.36653   0.39576   0.58915
 Alpha virt. eigenvalues --    0.61099   0.67647   0.74656   0.76001   0.82413

 Mulliken charges:
               1
     1  C   -0.082820
     2  C    0.174263
     3  O   -0.299443
     4  O   -0.185282
     5  H    0.194082
     6  H    0.055592
     7  H    0.013163
     8  H    0.041601
     9  H    0.038971
    10  H    0.049873
 Sum of Mulliken charges =   0.00000

 Dipole moment (field-independent basis, Debye):
    X=             -2.1708    Y=              1.6960    Z=             -0.2277  Tot=              2.7642
 Quadrupole moment (field-independent basis, Debye-Ang):
   XX=            -29.9023   YY=            -24.0305   ZZ=            -24.4400
   XY=              2.7132   XZ=             -4.2453   YZ=              6.1198

 CCSD(T)/cc-pVDZ SP Nosymm\\PEscan\\0,1\C,0,0.01956,0.00612,0.04841\C,0
 14\MP4DQ=-229.5588038\MP4SDQ=-229.5642065\CCSD=-229.5645594\CCSD(T)=-2
 Normal termination of Gaussian 09 at Thu Dec 21 02:35:58 2017.
