 Gaussian 09, Revision D.01,
 Gaussian 09:  EM64L-G09RevD.01 24-Apr-2013

 ------------------------
 #P MP2/cc-pVQZ SP Nosymm
 ------------------------

 ------
 PEscan
 ------
 Symbolic Z-matrix:
 Charge =  0 Multiplicity = 1

                          Input orientation:
 ---------------------------------------------------------------------
 Center     Atomic      Atomic             Coordinates (Angstroms)
 Number     Number       Type             X           Y           Z
 ---------------------------------------------------------------------
      1          6           0        0.012740   -0.031730    0.054810
      2          6           0        0.175260    0.190250    1.549490
      3          8           0        1.551700   -0.014220    1.831150
      4          8           0        1.751020    0.250090    3.244070
      5          1           0        1.156290   -0.414530    3.638640
      6          1           0        0.332340   -1.048630   -0.220940
      7          1           0       -0.126580    1.211210    1.847080
      8          1           0       -0.442700   -0.534080    2.122920
      9          1           0       -1.043020    0.097160   -0.231950
     10          1           0        0.622840    0.692650   -0.506340
 ---------------------------------------------------------------------

 SCF Done:  E(RHF) =  -228.940625367     A.U. after   13 cycles
 E2 =    -0.9023558192D+00 EUMP2 =    -0.22984298118665D+03

 Alpha  occ. eigenvalues --  -20.62103 -20.62064 -11.29175 -11.23086  -1.47169
 Alpha  occ. eigenvalues --   -1.22665  -1.00965  -0.85009  -0.71959  -0.67195
 Alpha  occ. eigenvalues --   -0.62916  -0.61320  -0.55005  -0.52820  -0.50818
 Alpha  occ. eigenvalues --   -0.49636  -0.44843
 Alpha virt. eigenvalues --    0.10604   0.12569   0.16116   0.17056   0.18884
 Alpha virt. eigenvalues --    0.20657   0.22744   0.26255   0.26962   0.30012
 Alpha virt. eigenvalues --    0.32989   0.34859   0.36349   0.44183   0.45468

 Mulliken charges:
               1
     1  C   -0.210690
     2  C    0.167461
     3  O   -0.217482
     4  O   -0.295242
     5  H    0.266206
     6  H    0.082511
     7  H    0.056643
     8  H   -0.004968
     9  H    0.066652
    10  H    0.088909
 Sum of Mulliken charges =   0.00000

 Dipole moment (field-independent basis, Debye):
    X=             -2.7302    Y=             -0.8209    Z=             -0.1119  Tot=              2.8531
 Quadrupole moment (field-independent basis, Debye-Ang):
   XX=            -31.7423   YY=            -24.7516   ZZ=            -23.2744
   XY=             -1.1677   XZ=             -6.2498   YZ=             -3.8550

 Normal termination of Gaussian 09 at Thu Dec 21 01:11:34 2017.
