 Gaussian 09, Revision D.01,
 Gaussian 09:  EM64L-G09RevD.01 24-Apr-2013

 ------------------------
 #P MP2/cc-pVQZ SP Nosymm
 ------------------------

 ------
 PEscan
 ------
 Symbolic Z-matrix:
 Charge =  0 Multiplicity = 1

                          Input orientation:
 ---------------------------------------------------------------------
 Center     Atomic      Atomic             Coordinates (Angstroms)
 Number     Number       Type             X           Y           Z
 ---------------------------------------------------------------------
      1          6           0        0.024860   -0.028430    0.025520
      2          6           0        0.033540    0.204150    1.527530
      3          8           0        1.329000   -0.159870    1.971580
      4          8           0        1.295180    0.109320    3.414680
      5          1           0        2.137810   -0.318560    3.637530
      6          1           0        0.230170   -1.085920   -0.203470
      7          1           0       -0.161640    1.264990    1.771750
      8          1           0       -0.727420   -0.415240    2.037890
      9          1           0       -0.961590    0.235340   -0.387870
     10          1           0        0.789990    0.592370   -0.466200
 ---------------------------------------------------------------------

 SCF Done:  E(RHF) =  -228.942657435     A.U. after   12 cycles
 E2 =    -0.9026443251D+00 EUMP2 =    -0.22984530176029D+03

 Alpha  occ. eigenvalues --  -20.61819 -20.61754 -11.28143 -11.22512  -1.46348
 Alpha  occ. eigenvalues --   -1.22832  -1.00137  -0.83905  -0.69973  -0.67467
 Alpha  occ. eigenvalues --   -0.65454  -0.57973  -0.54578  -0.53471  -0.50325
 Alpha  occ. eigenvalues --   -0.49996  -0.43322
 Alpha virt. eigenvalues --    0.11638   0.13167   0.15911   0.17262   0.18689
 Alpha virt. eigenvalues --    0.21132   0.22671   0.26959   0.27059   0.30927
 Alpha virt. eigenvalues --    0.31033   0.35745   0.37415   0.45535   0.46459

 Mulliken charges:
               1
     1  C   -0.215410
     2  C    0.177394
     3  O   -0.247367
     4  O   -0.298616
     5  H    0.270736
     6  H    0.079144
     7  H    0.043754
     8  H    0.042104
     9  H    0.067339
    10  H    0.080922
 Sum of Mulliken charges =   0.00000

 Dipole moment (field-independent basis, Debye):
    X=             -0.1745    Y=             -0.3180    Z=             -0.4183  Tot=              0.5536
 Quadrupole moment (field-independent basis, Debye-Ang):
   XX=            -22.4482   YY=            -25.0931   ZZ=            -25.6030
   XY=             -1.3060   XZ=              2.7176   YZ=             -2.1541

 Normal termination of Gaussian 09 at Thu Dec 21 02:18:12 2017.
