 Gaussian 09, Revision D.01,
 Gaussian 09:  EM64L-G09RevD.01 24-Apr-2013

 ----------------------------
 #P CCSD(T)/cc-pVDZ SP Nosymm
 ----------------------------

 ------
 PEscan
 ------
 Symbolic Z-matrix:
 Charge =  0 Multiplicity = 1

                          Input orientation:
 ---------------------------------------------------------------------
 Center     Atomic      Atomic             Coordinates (Angstroms)
 Number     Number       Type             X           Y           Z
 ---------------------------------------------------------------------
      1          6           0        0.010610   -0.024400    0.060370
      2          6           0        0.204360    0.153200    1.557150
      3          8           0        1.585870   -0.037410    1.802370
      4          8           0        1.826590    0.123710    3.231250
      5          1           0        0.978860   -0.173260    3.609340
      6          1           0        0.338570   -1.027860   -0.251260
      7          1           0       -0.111950    1.161280    1.889330
      8          1           0       -0.388630   -0.601820    2.118880
      9          1           0       -1.052910    0.098880   -0.198390
     10          1           0        0.598530    0.725820   -0.490110
 ---------------------------------------------------------------------

 SCF Done:  E(RHF) =  -228.846777887     A.U. after   14 cycles
 E2 =    -0.6713829698D+00 EUMP2 =    -0.22951816085718D+03
 CCSD(T)
 CCSD(T)= -0.22957879705D+03

 Alpha  occ. eigenvalues --  -20.62013 -20.61983 -11.30068 -11.24089  -1.46936
 Alpha  occ. eigenvalues --   -1.22848  -1.01332  -0.85595  -0.70826  -0.67668
 Alpha  occ. eigenvalues --   -0.63039  -0.59366  -0.55675  -0.53018  -0.50652
 Alpha  occ. eigenvalues --   -0.50514  -0.43451
 Alpha virt. eigenvalues --    0.17368   0.18381   0.23285   0.23598   0.26196
 Alpha virt. eigenvalues --    0.27890   0.28245   0.36947   0.38799   0.58626
 Alpha virt. eigenvalues --    0.61852   0.66993   0.73431   0.75358   0.79026

 Mulliken charges:
               1
     1  C   -0.069220
     2  C    0.140916
     3  O   -0.290213
     4  O   -0.178473
     5  H    0.185366
     6  H    0.055048
     7  H    0.040060
     8  H    0.019215
     9  H    0.039694
    10  H    0.057607
 Sum of Mulliken charges =   0.00000

 Dipole moment (field-independent basis, Debye):
    X=             -3.2374    Y=             -0.2512    Z=             -0.1024  Tot=              3.2488
 Quadrupole moment (field-independent basis, Debye-Ang):
   XX=            -32.7785   YY=            -25.0725   ZZ=            -23.0121
   XY=             -0.3794   XZ=             -7.9190   YZ=             -1.5151

 CCSD(T)/cc-pVDZ SP Nosymm\\PEscan\\0,1\C,0,0.01061,-0.0244,0.06037\C,0
 MP4DQ=-229.553173\MP4SDQ=-229.5586325\CCSD=-229.558947\CCSD(T)=-229.57
 Normal termination of Gaussian 09 at Thu Dec 21 02:45:33 2017.
