 Gaussian 09, Revision D.01,
 Gaussian 09:  EM64L-G09RevD.01 24-Apr-2013

 ------------------------
 #P MP2/cc-pVQZ SP Nosymm
 ------------------------

 ------
 PEscan
 ------
 Symbolic Z-matrix:
 Charge =  0 Multiplicity = 1

                          Input orientation:
 ---------------------------------------------------------------------
 Center     Atomic      Atomic             Coordinates (Angstroms)
 Number     Number       Type             X           Y           Z
 ---------------------------------------------------------------------
      1          6           0        0.010690   -0.011870    0.059150
      2          6           0        0.203650    0.088750    1.563340
      3          8           0        1.586870   -0.097400    1.795940
      4          8           0        1.846380   -0.012450    3.233370
      5          1           0        0.958690    0.151130    3.597050
      6          1           0        0.337620   -0.999270   -0.300670
      7          1           0       -0.118520    1.083290    1.936820
      8          1           0       -0.383250   -0.692910    2.089600
      9          1           0       -1.052650    0.124900   -0.193340
     10          1           0        0.600420    0.763970   -0.452330
 ---------------------------------------------------------------------

 SCF Done:  E(RHF) =  -228.933765548     A.U. after   11 cycles
 E2 =    -0.9031320469D+00 EUMP2 =    -0.22983689759479D+03

 Alpha  occ. eigenvalues --  -20.62083 -20.61966 -11.29834 -11.23457  -1.46683
 Alpha  occ. eigenvalues --   -1.23034  -1.01423  -0.85874  -0.70557  -0.68525
 Alpha  occ. eigenvalues --   -0.63637  -0.58445  -0.56916  -0.53584  -0.51324
 Alpha  occ. eigenvalues --   -0.50851  -0.43615
 Alpha virt. eigenvalues --    0.10580   0.12428   0.15952   0.16860   0.18359
 Alpha virt. eigenvalues --    0.20431   0.22239   0.25383   0.26298   0.29738
 Alpha virt. eigenvalues --    0.33530   0.34900   0.36649   0.44728   0.45432

 Mulliken charges:
               1
     1  C   -0.207289
     2  C    0.142707
     3  O   -0.209504
     4  O   -0.284599
     5  H    0.253076
     6  H    0.090295
     7  H    0.028723
     8  H    0.028721
     9  H    0.067577
    10  H    0.090293
 Sum of Mulliken charges =   0.00000

 Dipole moment (field-independent basis, Debye):
    X=             -3.2568    Y=              0.4651    Z=             -0.2361  Tot=              3.2983
 Quadrupole moment (field-independent basis, Debye-Ang):
   XX=            -32.8867   YY=            -25.2247   ZZ=            -23.8136
   XY=              0.4826   XZ=             -8.1832   YZ=              1.3478

 Normal termination of Gaussian 09 at Thu Dec 21 00:34:50 2017.
