 Gaussian 09, Revision D.01,
 Gaussian 09:  EM64L-G09RevD.01 24-Apr-2013

 ------------------------
 #P MP2/cc-pVQZ SP Nosymm
 ------------------------

 ------
 PEscan
 ------
 Symbolic Z-matrix:
 Charge =  0 Multiplicity = 1

                          Input orientation:
 ---------------------------------------------------------------------
 Center     Atomic      Atomic             Coordinates (Angstroms)
 Number     Number       Type             X           Y           Z
 ---------------------------------------------------------------------
      1          6           0        0.021820   -0.033590    0.030270
      2          6           0        0.056040    0.218810    1.528930
      3          8           0        1.380190   -0.079370    1.943250
      4          8           0        1.404220    0.243640    3.371520
      5          1           0        1.942230   -0.509580    3.665990
      6          1           0        0.271650   -1.083030   -0.191920
      7          1           0       -0.180960    1.273050    1.763010
      8          1           0       -0.664680   -0.425630    2.066460
      9          1           0       -0.985720    0.177780   -0.361960
     10          1           0        0.745110    0.616070   -0.486610
 ---------------------------------------------------------------------

 SCF Done:  E(RHF) =  -228.943181606     A.U. after   13 cycles
 E2 =    -0.9024557816D+00 EUMP2 =    -0.22984563738801D+03

 Alpha  occ. eigenvalues --  -20.61846 -20.61793 -11.28222 -11.22543  -1.46466
 Alpha  occ. eigenvalues --   -1.22756  -1.00198  -0.83902  -0.71002  -0.66285
 Alpha  occ. eigenvalues --   -0.65392  -0.59222  -0.54106  -0.53052  -0.50275
 Alpha  occ. eigenvalues --   -0.49763  -0.43855
 Alpha virt. eigenvalues --    0.11503   0.13112   0.15900   0.17208   0.18718
 Alpha virt. eigenvalues --    0.21048   0.22783   0.27007   0.27111   0.30696
 Alpha virt. eigenvalues --    0.31041   0.35974   0.37173   0.46030   0.46721

 Mulliken charges:
               1
     1  C   -0.214312
     2  C    0.176522
     3  O   -0.244281
     4  O   -0.305990
     5  H    0.278615
     6  H    0.077668
     7  H    0.045940
     8  H    0.036247
     9  H    0.066184
    10  H    0.083406
 Sum of Mulliken charges =   0.00000

 Dipole moment (field-independent basis, Debye):
    X=             -0.7458    Y=             -0.9518    Z=             -0.2594  Tot=              1.2368
 Quadrupole moment (field-independent basis, Debye-Ang):
   XX=            -24.9536   YY=            -24.5505   ZZ=            -24.5333
   XY=             -2.4196   XZ=              0.8800   YZ=             -4.5306

 Normal termination of Gaussian 09 at Thu Dec 21 02:00:09 2017.
