 Gaussian 09, Revision D.01,
 Gaussian 09:  EM64L-G09RevD.01 24-Apr-2013

 ----------------------------
 #P CCSD(T)/cc-pVDZ SP Nosymm
 ----------------------------

 ------
 PEscan
 ------
 Symbolic Z-matrix:
 Charge =  0 Multiplicity = 1

                          Input orientation:
 ---------------------------------------------------------------------
 Center     Atomic      Atomic             Coordinates (Angstroms)
 Number     Number       Type             X           Y           Z
 ---------------------------------------------------------------------
      1          6           0        0.021020    0.006770    0.045140
      2          6           0        0.110660   -0.010770    1.562430
      3          8           0        1.491450   -0.153090    1.870960
      4          8           0        1.595180   -0.250240    3.314880
      5          1           0        1.525890    0.691590    3.554180
      6          1           0        0.410950   -0.934800   -0.371340
      7          1           0       -0.282770    0.933150    1.993290
      8          1           0       -0.461320   -0.851060    1.995260
      9          1           0       -1.028640    0.124270   -0.267990
     10          1           0        0.607480    0.842320   -0.367880
 ---------------------------------------------------------------------

 SCF Done:  E(RHF) =  -228.853866930     A.U. after   13 cycles
 E2 =    -0.6705569251D+00 EUMP2 =    -0.22952442385469D+03
 CCSD(T)
 CCSD(T)= -0.22958504203D+03

 Alpha  occ. eigenvalues --  -20.62011 -20.61880 -11.29179 -11.23585  -1.47049
 Alpha  occ. eigenvalues --   -1.22528  -1.00687  -0.84436  -0.71735  -0.66367
 Alpha  occ. eigenvalues --   -0.62429  -0.61465  -0.54345  -0.52352  -0.50317
 Alpha  occ. eigenvalues --   -0.48215  -0.44886
 Alpha virt. eigenvalues --    0.17657   0.18808   0.23540   0.24209   0.26305
 Alpha virt. eigenvalues --    0.28406   0.28638   0.36543   0.39732   0.59024
 Alpha virt. eigenvalues --    0.61122   0.67758   0.74878   0.76104   0.82007

 Mulliken charges:
               1
     1  C   -0.084946
     2  C    0.182043
     3  O   -0.303265
     4  O   -0.187730
     5  H    0.196438
     6  H    0.054927
     7  H    0.013938
     8  H    0.041101
     9  H    0.038805
    10  H    0.048690
 Sum of Mulliken charges =   0.00000

 Dipole moment (field-independent basis, Debye):
    X=             -1.9061    Y=              1.7524    Z=             -0.2359  Tot=              2.5999
 Quadrupole moment (field-independent basis, Debye-Ang):
   XX=            -29.0410   YY=            -23.9371   ZZ=            -24.5844
   XY=              2.9924   XZ=             -3.3146   YZ=              6.3442

 CCSD(T)/cc-pVDZ SP Nosymm\\PEscan\\0,1\C,0,0.02102,0.00677,0.04514\C,0
 36\MP4DQ=-229.5596753\MP4SDQ=-229.5650627\CCSD=-229.565428\CCSD(T)=-22
 Normal termination of Gaussian 09 at Thu Dec 21 02:35:01 2017.
