 Gaussian 09, Revision D.01,
 Gaussian 09:  EM64L-G09RevD.01 24-Apr-2013

 ----------------------------
 #P CCSD(T)/cc-pVDZ SP Nosymm
 ----------------------------

 ------
 PEscan
 ------
 Symbolic Z-matrix:
 Charge =  0 Multiplicity = 1

                          Input orientation:
 ---------------------------------------------------------------------
 Center     Atomic      Atomic             Coordinates (Angstroms)
 Number     Number       Type             X           Y           Z
 ---------------------------------------------------------------------
      1          6           0        0.016180   -0.036410    0.045590
      2          6           0        0.126630    0.217070    1.540390
      3          8           0        1.491910   -0.003530    1.873080
      4          8           0        1.633310    0.309490    3.284100
      5          1           0        1.447720   -0.566910    3.665270
      6          1           0        0.318410   -1.067390   -0.196400
      7          1           0       -0.161720    1.251530    1.799610
      8          1           0       -0.523870   -0.476160    2.111080
      9          1           0       -1.024280    0.112090   -0.284670
     10          1           0        0.665600    0.658370   -0.509120
 ---------------------------------------------------------------------

 SCF Done:  E(RHF) =  -228.854554011     A.U. after   13 cycles
 E2 =    -0.6704400049D+00 EUMP2 =    -0.22952499401631D+03
 CCSD(T)
 CCSD(T)= -0.22958561297D+03

 Alpha  occ. eigenvalues --  -20.61963 -20.61833 -11.29023 -11.23493  -1.46939
 Alpha  occ. eigenvalues --   -1.22510  -1.00561  -0.84232  -0.71696  -0.66145
 Alpha  occ. eigenvalues --   -0.62870  -0.61157  -0.54183  -0.52309  -0.50223
 Alpha  occ. eigenvalues --   -0.48011  -0.44915
 Alpha virt. eigenvalues --    0.17878   0.18868   0.23549   0.24266   0.26223
 Alpha virt. eigenvalues --    0.28396   0.28725   0.36456   0.39855   0.59134
 Alpha virt. eigenvalues --    0.61226   0.67855   0.74863   0.76195   0.81736

 Mulliken charges:
               1
     1  C   -0.086524
     2  C    0.188803
     3  O   -0.307205
     4  O   -0.190154
     5  H    0.198537
     6  H    0.047705
     7  H    0.040470
     8  H    0.015439
     9  H    0.038674
    10  H    0.054256
 Sum of Mulliken charges =   0.00000

 Dipole moment (field-independent basis, Debye):
    X=             -2.0814    Y=             -1.2326    Z=              0.0044  Tot=              2.4190
 Quadrupole moment (field-independent basis, Debye-Ang):
   XX=            -29.6988   YY=            -24.2408   ZZ=            -22.7242
   XY=             -2.2201   XZ=             -3.6706   YZ=             -5.4538

 CCSD(T)/cc-pVDZ SP Nosymm\\PEscan\\0,1\C,0,0.01618,-0.03641,0.04559\C,
 4DQ=-229.5602688\MP4SDQ=-229.5656444\CCSD=-229.566021\CCSD(T)=-229.585
 Normal termination of Gaussian 09 at Thu Dec 21 02:51:20 2017.
