 Gaussian 09, Revision D.01,
 Gaussian 09:  EM64L-G09RevD.01 24-Apr-2013

 ----------------------------
 #P CCSD(T)/cc-pVDZ SP Nosymm
 ----------------------------

 ------
 PEscan
 ------
 Symbolic Z-matrix:
 Charge =  0 Multiplicity = 1

                          Input orientation:
 ---------------------------------------------------------------------
 Center     Atomic      Atomic             Coordinates (Angstroms)
 Number     Number       Type             X           Y           Z
 ---------------------------------------------------------------------
      1          6           0        0.022850   -0.031890    0.028100
      2          6           0        0.046480    0.214020    1.527960
      3          8           0        1.360610   -0.106150    1.954470
      4          8           0        1.363740    0.207170    3.386940
      5          1           0        2.019610   -0.455330    3.659160
      6          1           0        0.258600   -1.084220   -0.195680
      7          1           0       -0.176250    1.271040    1.764260
      8          1           0       -0.688820   -0.421490    2.056000
      9          1           0       -0.977600    0.196370   -0.372650
     10          1           0        0.760680    0.608620   -0.479630
 ---------------------------------------------------------------------

 SCF Done:  E(RHF) =  -228.854719810     A.U. after   14 cycles
 E2 =    -0.6703809472D+00 EUMP2 =    -0.22952510075706D+03
 CCSD(T)
 CCSD(T)= -0.22958562265D+03

 Alpha  occ. eigenvalues --  -20.61698 -20.61647 -11.28521 -11.23204  -1.46272
 Alpha  occ. eigenvalues --   -1.22632  -1.00133  -0.83744  -0.70145  -0.66266
 Alpha  occ. eigenvalues --   -0.65031  -0.58325  -0.53884  -0.52936  -0.49938
 Alpha  occ. eigenvalues --   -0.49394  -0.43032
 Alpha virt. eigenvalues --    0.18503   0.19581   0.23678   0.24524   0.25722
 Alpha virt. eigenvalues --    0.28110   0.29104   0.36439   0.40054   0.59567
 Alpha virt. eigenvalues --    0.61914   0.67846   0.74779   0.76343   0.82893

 Mulliken charges:
               1
     1  C   -0.087793
     2  C    0.205269
     3  O   -0.323485
     4  O   -0.193341
     5  H    0.198531
     6  H    0.046696
     7  H    0.036177
     8  H    0.029147
     9  H    0.038491
    10  H    0.050308
 Sum of Mulliken charges =   0.00000

 Dipole moment (field-independent basis, Debye):
    X=             -0.5273    Y=             -0.7966    Z=             -0.2354  Tot=              0.9839
 Quadrupole moment (field-independent basis, Debye-Ang):
   XX=            -23.7768   YY=            -24.6170   ZZ=            -24.3320
   XY=             -2.1960   XZ=              1.7309   YZ=             -3.9338

 CCSD(T)/cc-pVDZ SP Nosymm\\PEscan\\0,1\C,0,0.02285,-0.03189,0.0281\C,0
 P4DQ=-229.560282\MP4SDQ=-229.5656258\CCSD=-229.5660349\CCSD(T)=-229.58
 Normal termination of Gaussian 09 at Thu Dec 21 02:57:23 2017.
