 Gaussian 09, Revision D.01,
 Gaussian 09:  EM64L-G09RevD.01 24-Apr-2013

 ----------------------------
 #P CCSD(T)/cc-pVDZ SP Nosymm
 ----------------------------

 ------
 PEscan
 ------
 Symbolic Z-matrix:
 Charge =  0 Multiplicity = 1

                          Input orientation:
 ---------------------------------------------------------------------
 Center     Atomic      Atomic             Coordinates (Angstroms)
 Number     Number       Type             X           Y           Z
 ---------------------------------------------------------------------
      1          6           0        0.022440    0.007040    0.041910
      2          6           0        0.092280   -0.013650    1.560320
      3          8           0        1.470860   -0.145370    1.885120
      4          8           0        1.550970   -0.245160    3.331690
      5          1           0        1.636690    0.698310    3.556050
      6          1           0        0.428750   -0.928610   -0.372390
      7          1           0       -0.315120    0.923520    1.990600
      8          1           0       -0.476610   -0.861670    1.981840
      9          1           0       -1.024410    0.113070   -0.284510
     10          1           0        0.604030    0.850640   -0.361700
 ---------------------------------------------------------------------

 SCF Done:  E(RHF) =  -228.854554191     A.U. after   13 cycles
 E2 =    -0.6704398365D+00 EUMP2 =    -0.22952499402715D+03
 CCSD(T)
 CCSD(T)= -0.22958561293D+03

 Alpha  occ. eigenvalues --  -20.61963 -20.61833 -11.29023 -11.23493  -1.46940
 Alpha  occ. eigenvalues --   -1.22510  -1.00561  -0.84232  -0.71696  -0.66145
 Alpha  occ. eigenvalues --   -0.62870  -0.61157  -0.54183  -0.52309  -0.50223
 Alpha  occ. eigenvalues --   -0.48011  -0.44914
 Alpha virt. eigenvalues --    0.17878   0.18868   0.23549   0.24266   0.26223
 Alpha virt. eigenvalues --    0.28397   0.28725   0.36456   0.39855   0.59134
 Alpha virt. eigenvalues --    0.61226   0.67855   0.74863   0.76195   0.81736

 Mulliken charges:
               1
     1  C   -0.086523
     2  C    0.188803
     3  O   -0.307203
     4  O   -0.190156
     5  H    0.198539
     6  H    0.054255
     7  H    0.015437
     8  H    0.040469
     9  H    0.038674
    10  H    0.047704
 Sum of Mulliken charges =   0.00000

 Dipole moment (field-independent basis, Debye):
    X=             -1.6346    Y=              1.7650    Z=             -0.2535  Tot=              2.4190
 Quadrupole moment (field-independent basis, Debye-Ang):
   XX=            -28.0886   YY=            -23.8980   ZZ=            -24.7697
   XY=              3.2076   XZ=             -2.3654   YZ=              6.4062

 CCSD(T)/cc-pVDZ SP Nosymm\\PEscan\\0,1\C,0,0.02244,0.00704,0.04191\C,0
 MP4DQ=-229.5602689\MP4SDQ=-229.5656444\CCSD=-229.566021\CCSD(T)=-229.5
 Normal termination of Gaussian 09 at Thu Dec 21 02:34:05 2017.
