 Gaussian 09, Revision D.01,
 Gaussian 09:  EM64L-G09RevD.01 24-Apr-2013

 ------------------------
 #P MP2/cc-pVQZ SP Nosymm
 ------------------------

 ------
 PEscan
 ------
 Symbolic Z-matrix:
 Charge =  0 Multiplicity = 1

                          Input orientation:
 ---------------------------------------------------------------------
 Center     Atomic      Atomic             Coordinates (Angstroms)
 Number     Number       Type             X           Y           Z
 ---------------------------------------------------------------------
      1          6           0        0.021020    0.006770    0.045140
      2          6           0        0.110660   -0.010770    1.562430
      3          8           0        1.491450   -0.153090    1.870960
      4          8           0        1.595180   -0.250240    3.314880
      5          1           0        1.525890    0.691590    3.554180
      6          1           0        0.410950   -0.934800   -0.371340
      7          1           0       -0.282770    0.933150    1.993290
      8          1           0       -0.461320   -0.851060    1.995260
      9          1           0       -1.028640    0.124270   -0.267990
     10          1           0        0.607480    0.842320   -0.367880
 ---------------------------------------------------------------------

 SCF Done:  E(RHF) =  -228.942753211     A.U. after   12 cycles
 E2 =    -0.9020621260D+00 EUMP2 =    -0.22984481533699D+03

 Alpha  occ. eigenvalues --  -20.62044 -20.62014 -11.28808 -11.22879  -1.47089
 Alpha  occ. eigenvalues --   -1.22595  -1.00691  -0.84529  -0.72170  -0.66699
 Alpha  occ. eigenvalues --   -0.62861  -0.61792  -0.54573  -0.52610  -0.50663
 Alpha  occ. eigenvalues --   -0.48753  -0.45342
 Alpha virt. eigenvalues --    0.10788   0.12719   0.16091   0.17088   0.18859
 Alpha virt. eigenvalues --    0.20766   0.22887   0.26574   0.27206   0.30203
 Alpha virt. eigenvalues --    0.31992   0.35350   0.36702   0.44360   0.45955

 Mulliken charges:
               1
     1  C   -0.212569
     2  C    0.169511
     3  O   -0.225602
     4  O   -0.299708
     5  H    0.272492
     6  H    0.087798
     7  H    0.005396
     8  H    0.056727
     9  H    0.066305
    10  H    0.079651
 Sum of Mulliken charges =   0.00000

 Dipole moment (field-independent basis, Debye):
    X=             -1.8732    Y=              1.6895    Z=             -0.3181  Tot=              2.5425
 Quadrupole moment (field-independent basis, Debye-Ang):
   XX=            -29.1716   YY=            -23.9725   ZZ=            -25.1364
   XY=              2.8837   XZ=             -3.3379   YZ=              6.1894

 Normal termination of Gaussian 09 at Wed Dec 20 23:45:35 2017.
