 Gaussian 09, Revision D.01,
 Gaussian 09:  EM64L-G09RevD.01 24-Apr-2013

 ----------------------------
 #P CCSD(T)/cc-pVDZ SP Nosymm
 ----------------------------

 ------
 PEscan
 ------
 Symbolic Z-matrix:
 Charge =  0 Multiplicity = 1

                          Input orientation:
 ---------------------------------------------------------------------
 Center     Atomic      Atomic             Coordinates (Angstroms)
 Number     Number       Type             X           Y           Z
 ---------------------------------------------------------------------
      1          6           0        0.019780   -0.036350    0.035970
      2          6           0        0.080260    0.225070    1.532380
      3          8           0        1.423660   -0.033280    1.917240
      4          8           0        1.493160    0.292850    3.338270
      5          1           0        1.759990   -0.580480    3.671000
      6          1           0        0.294550   -1.079290   -0.187310
      7          1           0       -0.182900    1.272240    1.768200
      8          1           0       -0.610370   -0.438300    2.087340
      9          1           0       -1.001560    0.144850   -0.335150
     10          1           0        0.713320    0.630830   -0.499010
 ---------------------------------------------------------------------

 SCF Done:  E(RHF) =  -228.855109239     A.U. after   14 cycles
 E2 =    -0.6703633303D+00 EUMP2 =    -0.22952547256919D+03
 CCSD(T)
 CCSD(T)= -0.22958606619D+03

 Alpha  occ. eigenvalues --  -20.61802 -20.61710 -11.28693 -11.23294  -1.46542
 Alpha  occ. eigenvalues --   -1.22549  -1.00276  -0.83846  -0.71136  -0.65701
 Alpha  occ. eigenvalues --   -0.64347  -0.59801  -0.53868  -0.52421  -0.49975
 Alpha  occ. eigenvalues --   -0.48675  -0.43988
 Alpha virt. eigenvalues --    0.18477   0.19082   0.23596   0.24393   0.25950
 Alpha virt. eigenvalues --    0.28256   0.28946   0.36369   0.40048   0.59409
 Alpha virt. eigenvalues --    0.61705   0.68012   0.74250   0.76380   0.82386

 Mulliken charges:
               1
     1  C   -0.088619
     2  C    0.201606
     3  O   -0.317466
     4  O   -0.194714
     5  H    0.201467
     6  H    0.046224
     7  H    0.038294
     8  H    0.022481
     9  H    0.038468
    10  H    0.052258
 Sum of Mulliken charges =   0.00000

 Dipole moment (field-independent basis, Debye):
    X=             -1.2676    Y=             -1.2274    Z=             -0.0878  Tot=              1.7667
 Quadrupole moment (field-independent basis, Debye-Ang):
   XX=            -26.7933   YY=            -24.2066   ZZ=            -23.3859
   XY=             -2.6878   XZ=             -0.7819   YZ=             -5.5042

 CCSD(T)/cc-pVDZ SP Nosymm\\PEscan\\0,1\C,0,0.01978,-0.03635,0.03597\C,
 P4DQ=-229.5607258\MP4SDQ=-229.5660826\CCSD=-229.5664823\CCSD(T)=-229.5
 Normal termination of Gaussian 09 at Thu Dec 21 02:54:23 2017.
