 Gaussian 09, Revision D.01,
 Gaussian 09:  EM64L-G09RevD.01 24-Apr-2013

 ------------------------
 #P MP2/cc-pVQZ SP Nosymm
 ------------------------

 ------
 PEscan
 ------
 Symbolic Z-matrix:
 Charge =  0 Multiplicity = 1

                          Input orientation:
 ---------------------------------------------------------------------
 Center     Atomic      Atomic             Coordinates (Angstroms)
 Number     Number       Type             X           Y           Z
 ---------------------------------------------------------------------
      1          6           0        0.010250   -0.020820    0.060340
      2          6           0        0.206950    0.135330    1.559200
      3          8           0        1.589460   -0.052150    1.797380
      4          8           0        1.840940    0.076270    3.230370
      5          1           0        0.955220   -0.073650    3.606570
      6          1           0        0.338540   -1.019570   -0.265460
      7          1           0       -0.112650    1.139180    1.903590
      8          1           0       -0.381540   -0.629290    2.111600
      9          1           0       -1.053910    0.105220   -0.194330
     10          1           0        0.596630    0.737640   -0.480330
 ---------------------------------------------------------------------

 SCF Done:  E(RHF) =  -228.934880964     A.U. after   13 cycles
 E2 =    -0.9030680828D+00 EUMP2 =    -0.22983794904641D+03

 Alpha  occ. eigenvalues --  -20.62100 -20.61991 -11.29772 -11.23418  -1.46815
 Alpha  occ. eigenvalues --   -1.22963  -1.01380  -0.85786  -0.70883  -0.68248
 Alpha  occ. eigenvalues --   -0.63562  -0.59155  -0.56354  -0.53465  -0.51164
 Alpha  occ. eigenvalues --   -0.50870  -0.43776
 Alpha virt. eigenvalues --    0.10552   0.12435   0.15953   0.16951   0.18515
 Alpha virt. eigenvalues --    0.20453   0.22351   0.25528   0.26397   0.29742
 Alpha virt. eigenvalues --    0.33745   0.34746   0.36454   0.44699   0.45363

 Mulliken charges:
               1
     1  C   -0.207805
     2  C    0.150594
     3  O   -0.209393
     4  O   -0.287550
     5  H    0.255347
     6  H    0.088618
     7  H    0.042351
     8  H    0.010015
     9  H    0.067252
    10  H    0.090571
 Sum of Mulliken charges =   0.00000

 Dipole moment (field-independent basis, Debye):
    X=             -3.2414    Y=             -0.0176    Z=             -0.2113  Tot=              3.2483
 Quadrupole moment (field-independent basis, Debye-Ang):
   XX=            -32.8604   YY=            -25.2462   ZZ=            -23.6550
   XY=             -0.0557   XZ=             -8.1326   YZ=             -0.6021

 Normal termination of Gaussian 09 at Thu Dec 21 00:47:01 2017.
