 Gaussian 09, Revision D.01,
 Gaussian 09:  EM64L-G09RevD.01 24-Apr-2013

 ----------------------------
 #P CCSD(T)/cc-pVDZ SP Nosymm
 ----------------------------

 ------
 PEscan
 ------
 Symbolic Z-matrix:
 Charge =  0 Multiplicity = 1

                          Input orientation:
 ---------------------------------------------------------------------
 Center     Atomic      Atomic             Coordinates (Angstroms)
 Number     Number       Type             X           Y           Z
 ---------------------------------------------------------------------
      1          6           0        0.026460    0.000220    0.027470
      2          6           0        0.023970    0.003220    1.547610
      3          8           0        1.387760   -0.029810    1.938680
      4          8           0        1.353290   -0.102170    3.401030
      5          1           0        2.093570    0.501190    3.578400
      6          1           0        0.517440   -0.907950   -0.355360
      7          1           0       -0.465530    0.909180    1.951730
      8          1           0       -0.502080   -0.882530    1.948980
      9          1           0       -1.008690    0.027090   -0.348550
     10          1           0        0.563700    0.879720   -0.361060
 ---------------------------------------------------------------------

 SCF Done:  E(RHF) =  -228.854858929     A.U. after   14 cycles
 E2 =    -0.6703864997D+00 EUMP2 =    -0.22952524542839D+03
 CCSD(T)
 CCSD(T)= -0.22958579320D+03

 Alpha  occ. eigenvalues --  -20.61724 -20.61662 -11.28565 -11.23224  -1.46337
 Alpha  occ. eigenvalues --   -1.22607  -1.00167  -0.83757  -0.70503  -0.65901
 Alpha  occ. eigenvalues --   -0.64964  -0.58810  -0.53824  -0.52734  -0.49920
 Alpha  occ. eigenvalues --   -0.49243  -0.43291
 Alpha virt. eigenvalues --    0.18528   0.19422   0.23652   0.24482   0.25787
 Alpha virt. eigenvalues --    0.28145   0.29063   0.36411   0.40067   0.59527
 Alpha virt. eigenvalues --    0.61890   0.67926   0.74458   0.76384   0.82967

 Mulliken charges:
               1
     1  C   -0.088291
     2  C    0.204733
     3  O   -0.321951
     4  O   -0.194307
     5  H    0.199956
     6  H    0.050959
     7  H    0.027181
     8  H    0.036885
     9  H    0.038463
    10  H    0.046372
 Sum of Mulliken charges =   0.00000

 Dipole moment (field-independent basis, Debye):
    X=             -0.4429    Y=              1.1136    Z=             -0.3615  Tot=              1.2518
 Quadrupole moment (field-independent basis, Debye-Ang):
   XX=            -23.2217   YY=            -24.5186   ZZ=            -25.4936
   XY=              2.5952   XZ=              1.8476   YZ=              4.1544

 CCSD(T)/cc-pVDZ SP Nosymm\\PEscan\\0,1\C,0,0.02646,0.00022,0.02747\C,0
 \MP4DQ=-229.5604486\MP4SDQ=-229.5657969\CCSD=-229.5662038\CCSD(T)=-229
 Normal termination of Gaussian 09 at Thu Dec 21 02:29:02 2017.
