 Gaussian 09, Revision D.01,
 Gaussian 09:  EM64L-G09RevD.01 24-Apr-2013

 ----------------------------
 #P CCSD(T)/cc-pVDZ SP Nosymm
 ----------------------------

 ------
 PEscan
 ------
 Symbolic Z-matrix:
 Charge =  0 Multiplicity = 1

                          Input orientation:
 ---------------------------------------------------------------------
 Center     Atomic      Atomic             Coordinates (Angstroms)
 Number     Number       Type             X           Y           Z
 ---------------------------------------------------------------------
      1          6           0        0.016820    0.003970    0.054600
      2          6           0        0.162440    0.005770    1.567300
      3          8           0        1.546040   -0.160040    1.831550
      4          8           0        1.718820   -0.205030    3.273350
      5          1           0        1.219040    0.586960    3.545940
      6          1           0        0.364740   -0.954620   -0.359860
      7          1           0       -0.192840    0.969870    1.992820
      8          1           0       -0.417380   -0.811830    2.034890
      9          1           0       -1.039900    0.146690   -0.221720
     10          1           0        0.612110    0.816410   -0.389940
 ---------------------------------------------------------------------

 SCF Done:  E(RHF) =  -228.850025092     A.U. after   14 cycles
 E2 =    -0.6711331705D+00 EUMP2 =    -0.22952115826216D+03
 CCSD(T)
 CCSD(T)= -0.22958177871D+03

 Alpha  occ. eigenvalues --  -20.62057 -20.61985 -11.29748 -11.23910  -1.47128
 Alpha  occ. eigenvalues --   -1.22686  -1.01110  -0.85182  -0.71367  -0.67136
 Alpha  occ. eigenvalues --   -0.62703  -0.60485  -0.55031  -0.52692  -0.50522
 Alpha  occ. eigenvalues --   -0.49744  -0.44032
 Alpha virt. eigenvalues --    0.17310   0.18549   0.23436   0.23891   0.26381
 Alpha virt. eigenvalues --    0.28167   0.28425   0.36875   0.39185   0.58726
 Alpha virt. eigenvalues --    0.61343   0.67358   0.73873   0.75741   0.80942

 Mulliken charges:
               1
     1  C   -0.076821
     2  C    0.157203
     3  O   -0.293307
     4  O   -0.181114
     5  H    0.189304
     6  H    0.056815
     7  H    0.014177
     8  H    0.041819
     9  H    0.039375
    10  H    0.052550
 Sum of Mulliken charges =   0.00000

 Dipole moment (field-independent basis, Debye):
    X=             -2.6508    Y=              1.4792    Z=             -0.2346  Tot=              3.0447
 Quadrupole moment (field-independent basis, Debye-Ang):
   XX=            -31.2900   YY=            -24.3279   ZZ=            -24.2644
   XY=              2.0746   XZ=             -5.9412   YZ=              5.2740

 CCSD(T)/cc-pVDZ SP Nosymm\\PEscan\\0,1\C,0,0.01682,0.00397,0.0546\C,0,
 MP4DQ=-229.5562597\MP4SDQ=-229.5616978\CCSD=-229.5620265\CCSD(T)=-229.
 Normal termination of Gaussian 09 at Thu Dec 21 02:37:54 2017.
