 Gaussian 09, Revision D.01,
 Gaussian 09:  EM64L-G09RevD.01 24-Apr-2013

 ------------------------
 #P MP2/cc-pVQZ SP Nosymm
 ------------------------

 ------
 PEscan
 ------
 Symbolic Z-matrix:
 Charge =  0 Multiplicity = 1

                          Input orientation:
 ---------------------------------------------------------------------
 Center     Atomic      Atomic             Coordinates (Angstroms)
 Number     Number       Type             X           Y           Z
 ---------------------------------------------------------------------
      1          6           0        0.014910   -0.035180    0.048710
      2          6           0        0.143450    0.209400    1.543430
      3          8           0        1.513520   -0.004650    1.858290
      4          8           0        1.676770    0.298590    3.267720
      5          1           0        1.343690   -0.528870    3.659470
      6          1           0        0.323840   -1.061560   -0.203800
      7          1           0       -0.149750    1.239370    1.815040
      8          1           0       -0.495620   -0.494110    2.116190
      9          1           0       -1.031240    0.105610   -0.266540
     10          1           0        0.650320    0.669540   -0.509580
 ---------------------------------------------------------------------

 SCF Done:  E(RHF) =  -228.942753889     A.U. after   12 cycles
 E2 =    -0.9020618350D+00 EUMP2 =    -0.22984481572371D+03

 Alpha  occ. eigenvalues --  -20.62044 -20.62014 -11.28808 -11.22879  -1.47089
 Alpha  occ. eigenvalues --   -1.22595  -1.00691  -0.84529  -0.72170  -0.66699
 Alpha  occ. eigenvalues --   -0.62861  -0.61792  -0.54573  -0.52610  -0.50663
 Alpha  occ. eigenvalues --   -0.48753  -0.45342
 Alpha virt. eigenvalues --    0.10788   0.12719   0.16091   0.17088   0.18859
 Alpha virt. eigenvalues --    0.20766   0.22887   0.26574   0.27206   0.30203
 Alpha virt. eigenvalues --    0.31992   0.35350   0.36702   0.44360   0.45955

 Mulliken charges:
               1
     1  C   -0.212570
     2  C    0.169505
     3  O   -0.225603
     4  O   -0.299709
     5  H    0.272490
     6  H    0.079653
     7  H    0.056732
     8  H    0.005401
     9  H    0.066305
    10  H    0.087796
 Sum of Mulliken charges =   0.00000

 Dipole moment (field-independent basis, Debye):
    X=             -2.2895    Y=             -1.1030    Z=             -0.0777  Tot=              2.5426
 Quadrupole moment (field-independent basis, Debye-Ang):
   XX=            -30.5589   YY=            -24.4298   ZZ=            -23.2055
   XY=             -1.8044   XZ=             -4.6084   YZ=             -4.9995

 Normal termination of Gaussian 09 at Thu Dec 21 01:23:41 2017.
