 Gaussian 09, Revision D.01,
 Gaussian 09:  EM64L-G09RevD.01 24-Apr-2013

 ------------------------
 #P MP2/cc-pVQZ SP Nosymm
 ------------------------

 ------
 PEscan
 ------
 Symbolic Z-matrix:
 Charge =  0 Multiplicity = 1

                          Input orientation:
 ---------------------------------------------------------------------
 Center     Atomic      Atomic             Coordinates (Angstroms)
 Number     Number       Type             X           Y           Z
 ---------------------------------------------------------------------
      1          6           0        0.026460    0.000220    0.027470
      2          6           0        0.023970    0.003220    1.547610
      3          8           0        1.387760   -0.029810    1.938680
      4          8           0        1.353290   -0.102170    3.401030
      5          1           0        2.093570    0.501190    3.578400
      6          1           0        0.517440   -0.907950   -0.355360
      7          1           0       -0.465530    0.909180    1.951730
      8          1           0       -0.502080   -0.882530    1.948980
      9          1           0       -1.008690    0.027090   -0.348550
     10          1           0        0.563700    0.879720   -0.361060
 ---------------------------------------------------------------------

 SCF Done:  E(RHF) =  -228.943180417     A.U. after   13 cycles
 E2 =    -0.9024567787D+00 EUMP2 =    -0.22984563719545D+03

 Alpha  occ. eigenvalues --  -20.61846 -20.61793 -11.28222 -11.22543  -1.46465
 Alpha  occ. eigenvalues --   -1.22756  -1.00198  -0.83902  -0.71002  -0.66285
 Alpha  occ. eigenvalues --   -0.65392  -0.59222  -0.54106  -0.53052  -0.50275
 Alpha  occ. eigenvalues --   -0.49763  -0.43855
 Alpha virt. eigenvalues --    0.11503   0.13112   0.15900   0.17208   0.18718
 Alpha virt. eigenvalues --    0.21048   0.22782   0.27007   0.27111   0.30696
 Alpha virt. eigenvalues --    0.31041   0.35974   0.37173   0.46030   0.46721

 Mulliken charges:
               1
     1  C   -0.214312
     2  C    0.176523
     3  O   -0.244283
     4  O   -0.305992
     5  H    0.278617
     6  H    0.083402
     7  H    0.036246
     8  H    0.045941
     9  H    0.066187
    10  H    0.077670
 Sum of Mulliken charges =   0.00000

 Dipole moment (field-independent basis, Debye):
    X=             -0.4447    Y=              1.0696    Z=             -0.4335  Tot=              1.2367
 Quadrupole moment (field-independent basis, Debye-Ang):
   XX=            -23.4660   YY=            -24.6252   ZZ=            -26.0089
   XY=              2.5608   XZ=              1.7254   YZ=              4.0289

 Normal termination of Gaussian 09 at Wed Dec 20 23:08:42 2017.
