 Gaussian 09, Revision D.01,
 Gaussian 09:  EM64L-G09RevD.01 24-Apr-2013

 ----------------------------
 #P CCSD(T)/cc-pVDZ SP Nosymm
 ----------------------------

 ------
 PEscan
 ------
 Symbolic Z-matrix:
 Charge =  0 Multiplicity = 1

                          Input orientation:
 ---------------------------------------------------------------------
 Center     Atomic      Atomic             Coordinates (Angstroms)
 Number     Number       Type             X           Y           Z
 ---------------------------------------------------------------------
      1          6           0        0.021820   -0.033590    0.030270
      2          6           0        0.056040    0.218810    1.528930
      3          8           0        1.380190   -0.079370    1.943250
      4          8           0        1.404220    0.243640    3.371520
      5          1           0        1.942230   -0.509580    3.665990
      6          1           0        0.271650   -1.083030   -0.191920
      7          1           0       -0.180960    1.273050    1.763010
      8          1           0       -0.664680   -0.425630    2.066460
      9          1           0       -0.985720    0.177780   -0.361960
     10          1           0        0.745110    0.616070   -0.486610
 ---------------------------------------------------------------------

 SCF Done:  E(RHF) =  -228.854859896     A.U. after   14 cycles
 E2 =    -0.6703855433D+00 EUMP2 =    -0.22952524543903D+03
 CCSD(T)
 CCSD(T)= -0.22958579316D+03

 Alpha  occ. eigenvalues --  -20.61724 -20.61662 -11.28565 -11.23224  -1.46338
 Alpha  occ. eigenvalues --   -1.22607  -1.00166  -0.83757  -0.70503  -0.65901
 Alpha  occ. eigenvalues --   -0.64964  -0.58810  -0.53824  -0.52734  -0.49920
 Alpha  occ. eigenvalues --   -0.49243  -0.43291
 Alpha virt. eigenvalues --    0.18528   0.19422   0.23653   0.24482   0.25788
 Alpha virt. eigenvalues --    0.28146   0.29063   0.36411   0.40067   0.59527
 Alpha virt. eigenvalues --    0.61890   0.67926   0.74459   0.76384   0.82967

 Mulliken charges:
               1
     1  C   -0.088291
     2  C    0.204733
     3  O   -0.321949
     4  O   -0.194303
     5  H    0.199952
     6  H    0.046372
     7  H    0.036885
     8  H    0.027181
     9  H    0.038462
    10  H    0.050959
 Sum of Mulliken charges =   0.00000

 Dipole moment (field-independent basis, Debye):
    X=             -0.7551    Y=             -0.9818    Z=             -0.1811  Tot=              1.2518
 Quadrupole moment (field-independent basis, Debye-Ang):
   XX=            -24.7357   YY=            -24.4518   ZZ=            -23.9815
   XY=             -2.4741   XZ=              0.9783   YZ=             -4.6165

 CCSD(T)/cc-pVDZ SP Nosymm\\PEscan\\0,1\C,0,0.02182,-0.03359,0.03027\C,
 806\MP4DQ=-229.5604488\MP4SDQ=-229.565797\CCSD=-229.5662039\CCSD(T)=-2
 Normal termination of Gaussian 09 at Thu Dec 21 02:56:23 2017.
