 Gaussian 09, Revision D.01,
 Gaussian 09:  EM64L-G09RevD.01 24-Apr-2013

 ----------------------------
 #P CCSD(T)/cc-pVDZ SP Nosymm
 ----------------------------

 ------
 PEscan
 ------
 Symbolic Z-matrix:
 Charge =  0 Multiplicity = 1

                          Input orientation:
 ---------------------------------------------------------------------
 Center     Atomic      Atomic             Coordinates (Angstroms)
 Number     Number       Type             X           Y           Z
 ---------------------------------------------------------------------
      1          6           0        0.027930   -0.008240    0.023550
      2          6           0        0.005230    0.028920    1.542840
      3          8           0        1.360040    0.094780    1.952290
      4          8           0        1.282120    0.128340    3.418460
      5          1           0        2.236970    0.171800    3.588990
      6          1           0        0.583050   -0.889760   -0.333510
      7          1           0       -0.543450    0.913260    1.917080
      8          1           0       -0.469960   -0.877540    1.961990
      9          1           0       -1.001780   -0.060220   -0.364450
     10          1           0        0.509750    0.896800   -0.378310
 ---------------------------------------------------------------------

 SCF Done:  E(RHF) =  -228.854518325     A.U. after   13 cycles
 E2 =    -0.6703422161D+00 EUMP2 =    -0.22952486054113D+03
 CCSD(T)
 CCSD(T)= -0.22958533903D+03

 Alpha  occ. eigenvalues --  -20.61667 -20.61630 -11.28463 -11.23186  -1.46196
 Alpha  occ. eigenvalues --   -1.22668  -1.00095  -0.83744  -0.69359  -0.67172
 Alpha  occ. eigenvalues --   -0.65033  -0.57428  -0.54256  -0.53226  -0.49979
 Alpha  occ. eigenvalues --   -0.49516  -0.42696
 Alpha virt. eigenvalues --    0.18445   0.19802   0.23714   0.24594   0.25627
 Alpha virt. eigenvalues --    0.28080   0.29148   0.36484   0.40010   0.59621
 Alpha virt. eigenvalues --    0.61880   0.67688   0.75608   0.76148   0.82122

 Mulliken charges:
               1
     1  C   -0.086637
     2  C    0.205386
     3  O   -0.325484
     4  O   -0.191096
     5  H    0.195639
     6  H    0.048316
     7  H    0.033488
     8  H    0.033489
     9  H    0.038583
    10  H    0.048317
 Sum of Mulliken charges =   0.00000

 Dipole moment (field-independent basis, Debye):
    X=             -0.0326    Y=             -0.0113    Z=             -0.3994  Tot=              0.4008
 Quadrupole moment (field-independent basis, Debye-Ang):
   XX=            -21.3513   YY=            -25.1836   ZZ=            -25.6574
   XY=              0.2415   XZ=              3.3253   YZ=              0.1289

 CCSD(T)/cc-pVDZ SP Nosymm\\PEscan\\0,1\C,0,0.02793,-0.00824,0.02355\C,
 \MP4DQ=-229.5600123\MP4SDQ=-229.565348\CCSD=-229.5657601\CCSD(T)=-229.
 Normal termination of Gaussian 09 at Thu Dec 21 02:25:04 2017.
