 Gaussian 09, Revision D.01,
 Gaussian 09:  EM64L-G09RevD.01 24-Apr-2013

 ------------------------
 #P MP2/cc-pVQZ SP Nosymm
 ------------------------

 ------
 PEscan
 ------
 Symbolic Z-matrix:
 Charge =  0 Multiplicity = 1

                          Input orientation:
 ---------------------------------------------------------------------
 Center     Atomic      Atomic             Coordinates (Angstroms)
 Number     Number       Type             X           Y           Z
 ---------------------------------------------------------------------
      1          6           0        0.027930   -0.008240    0.023550
      2          6           0        0.005230    0.028920    1.542840
      3          8           0        1.360040    0.094780    1.952290
      4          8           0        1.282120    0.128340    3.418460
      5          1           0        2.236970    0.171800    3.588990
      6          1           0        0.583050   -0.889760   -0.333510
      7          1           0       -0.543450    0.913260    1.917080
      8          1           0       -0.469960   -0.877540    1.961990
      9          1           0       -1.001780   -0.060220   -0.364450
     10          1           0        0.509750    0.896800   -0.378310
 ---------------------------------------------------------------------

 SCF Done:  E(RHF) =  -228.942618684     A.U. after   11 cycles
 E2 =    -0.9026560053D+00 EUMP2 =    -0.22984527468935D+03

 Alpha  occ. eigenvalues --  -20.61817 -20.61751 -11.28138 -11.22510  -1.46341
 Alpha  occ. eigenvalues --   -1.22837  -1.00134  -0.83908  -0.69843  -0.67617
 Alpha  occ. eigenvalues --   -0.65452  -0.57845  -0.54666  -0.53494  -0.50328
 Alpha  occ. eigenvalues --   -0.50005  -0.43287
 Alpha virt. eigenvalues --    0.11646   0.13170   0.15912   0.17267   0.18686
 Alpha virt. eigenvalues --    0.21139   0.22663   0.26946   0.27063   0.30952
 Alpha virt. eigenvalues --    0.31027   0.35715   0.37463   0.45488   0.46447

 Mulliken charges:
               1
     1  C   -0.215538
     2  C    0.177460
     3  O   -0.247659
     4  O   -0.297982
     5  H    0.270059
     6  H    0.079981
     7  H    0.043110
     8  H    0.043111
     9  H    0.067478
    10  H    0.079980
 Sum of Mulliken charges =   0.00000

 Dipole moment (field-independent basis, Debye):
    X=             -0.0500    Y=             -0.0138    Z=             -0.4680  Tot=              0.4709
 Quadrupole moment (field-independent basis, Debye-Ang):
   XX=            -21.6150   YY=            -25.3258   ZZ=            -26.1582
   XY=              0.2326   XZ=              3.1611   YZ=              0.1138

 Normal termination of Gaussian 09 at Wed Dec 20 22:43:59 2017.
