 Gaussian 09, Revision D.01,
 Gaussian 09:  EM64L-G09RevD.01 24-Apr-2013

 ------------------------
 #P MP2/cc-pVQZ SP Nosymm
 ------------------------

 ------
 PEscan
 ------
 Symbolic Z-matrix:
 Charge =  0 Multiplicity = 1

                          Input orientation:
 ---------------------------------------------------------------------
 Center     Atomic      Atomic             Coordinates (Angstroms)
 Number     Number       Type             X           Y           Z
 ---------------------------------------------------------------------
      1          6           0        0.024720    0.005850    0.035590
      2          6           0        0.059200   -0.012950    1.555360
      3          8           0        1.432190   -0.114220    1.911010
      4          8           0        1.463830   -0.208920    3.364470
      5          1           0        1.846580    0.662870    3.561900
      6          1           0        0.464770   -0.918530   -0.369600
      7          1           0       -0.378910    0.911230    1.979750
      8          1           0       -0.498510   -0.876520    1.960520
      9          1           0       -1.016730    0.084570   -0.314980
     10          1           0        0.592750    0.864760   -0.355100
 ---------------------------------------------------------------------

 SCF Done:  E(RHF) =  -228.943728681     A.U. after   13 cycles
 E2 =    -0.9021293024D+00 EUMP2 =    -0.22984585798390D+03

 Alpha  occ. eigenvalues --  -20.61923 -20.61891 -11.28420 -11.22656  -1.46761
 Alpha  occ. eigenvalues --   -1.22636  -1.00373  -0.84054  -0.71871  -0.66150
 Alpha  occ. eigenvalues --   -0.64282  -0.60672  -0.54181  -0.52615  -0.50403
 Alpha  occ. eigenvalues --   -0.48896  -0.44882
 Alpha virt. eigenvalues --    0.11187   0.12960   0.15933   0.17158   0.18775
 Alpha virt. eigenvalues --    0.20914   0.22920   0.26875   0.27285   0.30431
 Alpha virt. eigenvalues --    0.31198   0.35882   0.37223   0.45268   0.46191

 Mulliken charges:
               1
     1  C   -0.213949
     2  C    0.175913
     3  O   -0.237745
     4  O   -0.307796
     5  H    0.280992
     6  H    0.085652
     7  H    0.023057
     8  H    0.050640
     9  H    0.065895
    10  H    0.077340
 Sum of Mulliken charges =   0.00000

 Dipole moment (field-independent basis, Debye):
    X=             -1.0874    Y=              1.5816    Z=             -0.3766  Tot=              1.9560
 Quadrupole moment (field-independent basis, Debye-Ang):
   XX=            -26.2467   YY=            -24.0680   ZZ=            -25.6734
   XY=              3.2607   XZ=             -0.5775   YZ=              5.8354

 Normal termination of Gaussian 09 at Wed Dec 20 23:27:23 2017.
