 Gaussian 09, Revision D.01,
 Gaussian 09:  EM64L-G09RevD.01 24-Apr-2013

 ------------------------
 #P MP2/cc-pVQZ SP Nosymm
 ------------------------

 ------
 PEscan
 ------
 Symbolic Z-matrix:
 Charge =  0 Multiplicity = 1

                          Input orientation:
 ---------------------------------------------------------------------
 Center     Atomic      Atomic             Coordinates (Angstroms)
 Number     Number       Type             X           Y           Z
 ---------------------------------------------------------------------
      1          6           0        0.017460   -0.037070    0.042420
      2          6           0        0.110190    0.222460    1.537470
      3          8           0        1.469400   -0.007350    1.888100
      4          8           0        1.587220    0.311840    3.302050
      5          1           0        1.553820   -0.588750    3.668650
      6          1           0        0.311870   -1.072350   -0.190890
      7          1           0       -0.171850    1.261310    1.786140
      8          1           0       -0.552650   -0.460640    2.104600
      9          1           0       -1.016910    0.120600   -0.302450
     10          1           0        0.681350    0.648100   -0.507160
 ---------------------------------------------------------------------

 SCF Done:  E(RHF) =  -228.943660304     A.U. after   12 cycles
 E2 =    -0.9020512502D+00 EUMP2 =    -0.22984571155449D+03

 Alpha  occ. eigenvalues --  -20.61962 -20.61932 -11.28525 -11.22717  -1.46882
 Alpha  occ. eigenvalues --   -1.22607  -1.00463  -0.84173  -0.72049  -0.66297
 Alpha  occ. eigenvalues --   -0.63775  -0.61119  -0.54281  -0.52569  -0.50484
 Alpha  occ. eigenvalues --   -0.48644  -0.45198
 Alpha virt. eigenvalues --    0.11051   0.12886   0.15976   0.17138   0.18802
 Alpha virt. eigenvalues --    0.20865   0.22936   0.26797   0.27301   0.30358
 Alpha virt. eigenvalues --    0.31367   0.35743   0.37114   0.44888   0.46107

 Mulliken charges:
               1
     1  C   -0.213739
     2  C    0.174302
     3  O   -0.234130
     4  O   -0.305395
     5  H    0.278626
     6  H    0.077755
     7  H    0.052604
     8  H    0.017571
     9  H    0.065977
    10  H    0.086429
 Sum of Mulliken charges =   0.00000

 Dipole moment (field-independent basis, Debye):
    X=             -1.7753    Y=             -1.2403    Z=             -0.1043  Tot=              2.1682
 Quadrupole moment (field-independent basis, Debye-Ang):
   XX=            -28.9188   YY=            -24.2348   ZZ=            -23.4858
   XY=             -2.3531   XZ=             -2.7396   YZ=             -5.5660

 Normal termination of Gaussian 09 at Thu Dec 21 01:35:41 2017.
