 Gaussian 09, Revision D.01,
 Gaussian 09:  EM64L-G09RevD.01 24-Apr-2013

 ----------------------------
 #P CCSD(T)/cc-pVDZ SP Nosymm
 ----------------------------

 ------
 PEscan
 ------
 Symbolic Z-matrix:
 Charge =  0 Multiplicity = 1

                          Input orientation:
 ---------------------------------------------------------------------
 Center     Atomic      Atomic             Coordinates (Angstroms)
 Number     Number       Type             X           Y           Z
 ---------------------------------------------------------------------
      1          6           0        0.012830   -0.003250    0.058840
      2          6           0        0.193230    0.043180    1.567140
      3          8           0        1.576350   -0.140310    1.804930
      4          8           0        1.815540   -0.094610    3.245040
      5          1           0        1.020740    0.365830    3.568740
      6          1           0        0.341030   -0.978140   -0.332700
      7          1           0       -0.134910    1.026440    1.969150
      8          1           0       -0.394450   -0.752950    2.066410
      9          1           0       -1.048280    0.143280   -0.197560
     10          1           0        0.607820    0.788660   -0.421050
 ---------------------------------------------------------------------

 SCF Done:  E(RHF) =  -228.845445364     A.U. after   14 cycles
 E2 =    -0.6714034522D+00 EUMP2 =    -0.22951684881625D+03
 CCSD(T)
 CCSD(T)= -0.22957749540D+03

 Alpha  occ. eigenvalues --  -20.61993 -20.61963 -11.30163 -11.24143  -1.46811
 Alpha  occ. eigenvalues --   -1.22920  -1.01396  -0.85720  -0.70541  -0.67914
 Alpha  occ. eigenvalues --   -0.63138  -0.58803  -0.56050  -0.53153  -0.50906
 Alpha  occ. eigenvalues --   -0.50506  -0.43248
 Alpha virt. eigenvalues --    0.17428   0.18327   0.23195   0.23485   0.26062
 Alpha virt. eigenvalues --    0.27785   0.28136   0.36902   0.38674   0.58619
 Alpha virt. eigenvalues --    0.62093   0.66838   0.73464   0.75109   0.78348

 Mulliken charges:
               1
     1  C   -0.065614
     2  C    0.134177
     3  O   -0.289586
     4  O   -0.177739
     5  H    0.184006
     6  H    0.057730
     7  H    0.023110
     8  H    0.038110
     9  H    0.039770
    10  H    0.056035
 Sum of Mulliken charges =   0.00000

 Dipole moment (field-independent basis, Debye):
    X=             -3.1671    Y=              0.9567    Z=             -0.1983  Tot=              3.3143
 Quadrupole moment (field-independent basis, Debye-Ang):
   XX=            -32.5815   YY=            -24.8712   ZZ=            -23.7088
   XY=              1.1259   XZ=             -7.7112   YZ=              3.2488

 CCSD(T)/cc-pVDZ SP Nosymm\\PEscan\\0,1\C,0,0.01283,-0.00325,0.05884\C,
 12\MP4DQ=-229.5518413\MP4SDQ=-229.557302\CCSD=-229.5576147\CCSD(T)=-22
 Normal termination of Gaussian 09 at Thu Dec 21 02:40:47 2017.
