 Gaussian 09, Revision D.01,
 Gaussian 09:  EM64L-G09RevD.01 24-Apr-2013

 ------------------------
 #P MP2/cc-pVQZ SP Nosymm
 ------------------------

 ------
 PEscan
 ------
 Symbolic Z-matrix:
 Charge =  0 Multiplicity = 1

                          Input orientation:
 ---------------------------------------------------------------------
 Center     Atomic      Atomic             Coordinates (Angstroms)
 Number     Number       Type             X           Y           Z
 ---------------------------------------------------------------------
      1          6           0        0.023700    0.006760    0.038730
      2          6           0        0.074930   -0.014480    1.557950
      3          8           0        1.450850   -0.132690    1.898660
      4          8           0        1.506770   -0.231000    3.348570
      5          1           0        1.744710    0.688770    3.558290
      6          1           0        0.446800   -0.923120   -0.371810
      7          1           0       -0.347330    0.916090    1.986160
      8          1           0       -0.489390   -0.870270    1.969980
      9          1           0       -1.020360    0.099890   -0.300350
     10          1           0        0.599200    0.858190   -0.357250
 ---------------------------------------------------------------------

 SCF Done:  E(RHF) =  -228.943659661     A.U. after   12 cycles
 E2 =    -0.9020517569D+00 EUMP2 =    -0.22984571141826D+03

 Alpha  occ. eigenvalues --  -20.61962 -20.61932 -11.28525 -11.22717  -1.46881
 Alpha  occ. eigenvalues --   -1.22607  -1.00464  -0.84172  -0.72049  -0.66297
 Alpha  occ. eigenvalues --   -0.63775  -0.61119  -0.54281  -0.52569  -0.50484
 Alpha  occ. eigenvalues --   -0.48645  -0.45198
 Alpha virt. eigenvalues --    0.11051   0.12886   0.15976   0.17138   0.18802
 Alpha virt. eigenvalues --    0.20865   0.22936   0.26797   0.27301   0.30358
 Alpha virt. eigenvalues --    0.31367   0.35743   0.37114   0.44888   0.46107

 Mulliken charges:
               1
     1  C   -0.213739
     2  C    0.174304
     3  O   -0.234131
     4  O   -0.305395
     5  H    0.278627
     6  H    0.086431
     7  H    0.017570
     8  H    0.052602
     9  H    0.065979
    10  H    0.077752
 Sum of Mulliken charges =   0.00000

 Dipole moment (field-independent basis, Debye):
    X=             -1.3424    Y=              1.6654    Z=             -0.3544  Tot=              2.1682
 Quadrupole moment (field-independent basis, Debye-Ang):
   XX=            -27.2575   YY=            -23.9699   ZZ=            -25.5017
   XY=              3.2409   XZ=             -1.4752   YZ=              6.1255

 Normal termination of Gaussian 09 at Wed Dec 20 23:33:22 2017.
