 Gaussian 09, Revision D.01,
 Gaussian 09:  EM64L-G09RevD.01 24-Apr-2013

 ----------------------------
 #P CCSD(T)/cc-pVDZ SP Nosymm
 ----------------------------

 ------
 PEscan
 ------
 Symbolic Z-matrix:
 Charge =  0 Multiplicity = 1

                          Input orientation:
 ---------------------------------------------------------------------
 Center     Atomic      Atomic             Coordinates (Angstroms)
 Number     Number       Type             X           Y           Z
 ---------------------------------------------------------------------
      1          6           0        0.010250   -0.020820    0.060340
      2          6           0        0.206950    0.135330    1.559200
      3          8           0        1.589460   -0.052150    1.797380
      4          8           0        1.840940    0.076270    3.230370
      5          1           0        0.955220   -0.073650    3.606570
      6          1           0        0.338540   -1.019570   -0.265460
      7          1           0       -0.112650    1.139180    1.903590
      8          1           0       -0.381540   -0.629290    2.111600
      9          1           0       -1.053910    0.105220   -0.194330
     10          1           0        0.596630    0.737640   -0.480330
 ---------------------------------------------------------------------

 SCF Done:  E(RHF) =  -228.845445860     A.U. after   14 cycles
 E2 =    -0.6714029646D+00 EUMP2 =    -0.22951684882413D+03
 CCSD(T)
 CCSD(T)= -0.22957749533D+03

 Alpha  occ. eigenvalues --  -20.61993 -20.61963 -11.30163 -11.24143  -1.46812
 Alpha  occ. eigenvalues --   -1.22920  -1.01396  -0.85720  -0.70541  -0.67914
 Alpha  occ. eigenvalues --   -0.63138  -0.58804  -0.56050  -0.53153  -0.50906
 Alpha  occ. eigenvalues --   -0.50506  -0.43247
 Alpha virt. eigenvalues --    0.17428   0.18328   0.23195   0.23485   0.26062
 Alpha virt. eigenvalues --    0.27785   0.28136   0.36903   0.38675   0.58619
 Alpha virt. eigenvalues --    0.62093   0.66838   0.73464   0.75110   0.78348

 Mulliken charges:
               1
     1  C   -0.065612
     2  C    0.134175
     3  O   -0.289585
     4  O   -0.177739
     5  H    0.184008
     6  H    0.056035
     7  H    0.038108
     8  H    0.023108
     9  H    0.039771
    10  H    0.057730
 Sum of Mulliken charges =   0.00000

 Dipole moment (field-independent basis, Debye):
    X=             -3.3123    Y=             -0.0185    Z=             -0.1145  Tot=              3.3143
 Quadrupole moment (field-independent basis, Debye-Ang):
   XX=            -32.9383   YY=            -25.1468   ZZ=            -23.0463
   XY=             -0.0933   XZ=             -8.1818   YZ=             -0.5908

 CCSD(T)/cc-pVDZ SP Nosymm\\PEscan\\0,1\C,0,0.01025,-0.02082,0.06034\C,
 2\MP4DQ=-229.5518415\MP4SDQ=-229.557302\CCSD=-229.5576147\CCSD(T)=-229
 Normal termination of Gaussian 09 at Thu Dec 21 02:44:36 2017.
