 Gaussian 09, Revision D.01,
 Gaussian 09:  EM64L-G09RevD.01 24-Apr-2013

 ------------------------
 #P MP2/cc-pVQZ SP Nosymm
 ------------------------

 ------
 PEscan
 ------
 Symbolic Z-matrix:
 Charge =  0 Multiplicity = 1

                          Input orientation:
 ---------------------------------------------------------------------
 Center     Atomic      Atomic             Coordinates (Angstroms)
 Number     Number       Type             X           Y           Z
 ---------------------------------------------------------------------
      1          6           0        0.011180   -0.027300    0.059410
      2          6           0        0.198170    0.167560    1.554890
      3          8           0        1.578340   -0.027440    1.809890
      4          8           0        1.806300    0.170400    3.233430
      5          1           0        1.020670   -0.262690    3.615650
      6          1           0        0.337570   -1.035180   -0.239680
      7          1           0       -0.113570    1.179840    1.875800
      8          1           0       -0.401630   -0.577420    2.122960
      9          1           0       -1.050760    0.095650   -0.206020
     10          1           0        0.603620    0.714720   -0.497390
 ---------------------------------------------------------------------

 SCF Done:  E(RHF) =  -228.937623520     A.U. after   13 cycles
 E2 =    -0.9027887045D+00 EUMP2 =    -0.22984041222402D+03

 Alpha  occ. eigenvalues --  -20.62122 -20.62044 -11.29542 -11.23288  -1.47056
 Alpha  occ. eigenvalues --   -1.22808  -1.01223  -0.85484  -0.71475  -0.67731
 Alpha  occ. eigenvalues --   -0.63318  -0.60273  -0.55600  -0.53155  -0.50893
 Alpha  occ. eigenvalues --   -0.50581  -0.44227
 Alpha virt. eigenvalues --    0.10529   0.12471   0.16029   0.17030   0.18773
 Alpha virt. eigenvalues --    0.20537   0.22555   0.25871   0.26656   0.29829
 Alpha virt. eigenvalues --    0.34034   0.34311   0.36246   0.44358   0.45226

 Mulliken charges:
               1
     1  C   -0.209056
     2  C    0.163018
     3  O   -0.211619
     4  O   -0.291901
     5  H    0.260369
     6  H    0.085703
     7  H    0.050704
     8  H   -0.004013
     9  H    0.066867
    10  H    0.089927
 Sum of Mulliken charges =   0.00000

 Dipole moment (field-independent basis, Debye):
    X=             -3.0575    Y=             -0.4512    Z=             -0.1762  Tot=              3.0957
 Quadrupole moment (field-independent basis, Debye-Ang):
   XX=            -32.4822   YY=            -25.0544   ZZ=            -23.5356
   XY=             -0.5844   XZ=             -7.4721   YZ=             -2.3563

 Normal termination of Gaussian 09 at Thu Dec 21 00:59:20 2017.
