 Gaussian 09, Revision D.01,
 Gaussian 09:  EM64L-G09RevD.01 24-Apr-2013

 ------------------------
 #P MP2/cc-pVQZ SP Nosymm
 ------------------------

 ------
 PEscan
 ------
 Symbolic Z-matrix:
 Charge =  0 Multiplicity = 1

                          Input orientation:
 ---------------------------------------------------------------------
 Center     Atomic      Atomic             Coordinates (Angstroms)
 Number     Number       Type             X           Y           Z
 ---------------------------------------------------------------------
      1          6           0        0.018160    0.005190    0.051650
      2          6           0        0.146790   -0.000970    1.565980
      3          8           0        1.530080   -0.159530    1.843590
      4          8           0        1.679620   -0.229920    3.285330
      5          1           0        1.312770    0.634610    3.548210
      6          1           0        0.378260   -0.947980   -0.365020
      7          1           0       -0.220550    0.956490    1.994570
      8          1           0       -0.430090   -0.826020    2.022610
      9          1           0       -1.036540    0.141320   -0.235660
     10          1           0        0.611400    0.824940   -0.382330
 ---------------------------------------------------------------------

 SCF Done:  E(RHF) =  -228.940626449     A.U. after   13 cycles
 E2 =    -0.9023551736D+00 EUMP2 =    -0.22984298162226D+03

 Alpha  occ. eigenvalues --  -20.62103 -20.62064 -11.29175 -11.23085  -1.47169
 Alpha  occ. eigenvalues --   -1.22666  -1.00965  -0.85009  -0.71959  -0.67195
 Alpha  occ. eigenvalues --   -0.62916  -0.61320  -0.55005  -0.52820  -0.50817
 Alpha  occ. eigenvalues --   -0.49636  -0.44843
 Alpha virt. eigenvalues --    0.10604   0.12569   0.16116   0.17056   0.18884
 Alpha virt. eigenvalues --    0.20657   0.22745   0.26255   0.26962   0.30012
 Alpha virt. eigenvalues --    0.32989   0.34859   0.36349   0.44183   0.45468

 Mulliken charges:
               1
     1  C   -0.210691
     2  C    0.167462
     3  O   -0.217479
     4  O   -0.295240
     5  H    0.266204
     6  H    0.088911
     7  H   -0.004972
     8  H    0.056643
     9  H    0.066651
    10  H    0.082510
 Sum of Mulliken charges =   0.00000

 Dipole moment (field-independent basis, Debye):
    X=             -2.3776    Y=              1.5452    Z=             -0.3155  Tot=              2.8531
 Quadrupole moment (field-independent basis, Debye-Ang):
   XX=            -30.7259   YY=            -24.2052   ZZ=            -24.9103
   XY=              2.2843   XZ=             -5.1276   YZ=              5.6211

 Normal termination of Gaussian 09 at Wed Dec 20 23:57:54 2017.
