 Gaussian 09, Revision D.01,
 Gaussian 09:  EM64L-G09RevD.01 24-Apr-2013

 ----------------------------
 #P CCSD(T)/cc-pVDZ SP Nosymm
 ----------------------------

 ------
 PEscan
 ------
 Symbolic Z-matrix:
 Charge =  0 Multiplicity = 1

                          Input orientation:
 ---------------------------------------------------------------------
 Center     Atomic      Atomic             Coordinates (Angstroms)
 Number     Number       Type             X           Y           Z
 ---------------------------------------------------------------------
      1          6           0        0.012740   -0.031730    0.054810
      2          6           0        0.175260    0.190250    1.549490
      3          8           0        1.551700   -0.014220    1.831150
      4          8           0        1.751020    0.250090    3.244070
      5          1           0        1.156290   -0.414530    3.638640
      6          1           0        0.332340   -1.048630   -0.220940
      7          1           0       -0.126580    1.211210    1.847080
      8          1           0       -0.442700   -0.534080    2.122920
      9          1           0       -1.043020    0.097160   -0.231950
     10          1           0        0.622840    0.692650   -0.506340
 ---------------------------------------------------------------------

 SCF Done:  E(RHF) =  -228.851563832     A.U. after   14 cycles
 E2 =    -0.6709303501D+00 EUMP2 =    -0.22952249418161D+03
 CCSD(T)
 CCSD(T)= -0.22958311146D+03

 Alpha  occ. eigenvalues --  -20.62061 -20.61961 -11.29552 -11.23800  -1.47153
 Alpha  occ. eigenvalues --   -1.22617  -1.00969  -0.84927  -0.71565  -0.66869
 Alpha  occ. eigenvalues --   -0.62480  -0.61001  -0.54767  -0.52547  -0.50474
 Alpha  occ. eigenvalues --   -0.49188  -0.44363
 Alpha virt. eigenvalues --    0.17362   0.18643   0.23488   0.24024   0.26398
 Alpha virt. eigenvalues --    0.28301   0.28480   0.36771   0.39391   0.58813
 Alpha virt. eigenvalues --    0.61173   0.67516   0.74275   0.75882   0.81964

 Mulliken charges:
               1
     1  C   -0.080104
     2  C    0.165840
     3  O   -0.296042
     4  O   -0.183030
     5  H    0.191653
     6  H    0.051187
     7  H    0.041884
     8  H    0.013210
     9  H    0.039169
    10  H    0.056232
 Sum of Mulliken charges =   0.00000

 Dipole moment (field-independent basis, Debye):
    X=             -2.7863    Y=             -0.8482    Z=             -0.0182  Tot=              2.9126
 Quadrupole moment (field-independent basis, Debye-Ang):
   XX=            -31.7376   YY=            -24.6716   ZZ=            -22.6770
   XY=             -1.2770   XZ=             -6.2592   YZ=             -3.8994

 CCSD(T)/cc-pVDZ SP Nosymm\\PEscan\\0,1\C,0,0.01274,-0.03173,0.05481\C,
 4\MP4DQ=-229.5576532\MP4SDQ=-229.5630736\CCSD=-229.5634139\CCSD(T)=-22
 Normal termination of Gaussian 09 at Thu Dec 21 02:48:23 2017.
