 Gaussian 09, Revision D.01,
 Gaussian 09:  EM64L-G09RevD.01 24-Apr-2013

 ------------------------
 #P MP2/cc-pVQZ SP Nosymm
 ------------------------

 ------
 PEscan
 ------
 Symbolic Z-matrix:
 Charge =  0 Multiplicity = 1

                          Input orientation:
 ---------------------------------------------------------------------
 Center     Atomic      Atomic             Coordinates (Angstroms)
 Number     Number       Type             X           Y           Z
 ---------------------------------------------------------------------
      1          6           0        0.027730   -0.006280    0.023730
      2          6           0        0.006660    0.023300    1.543230
      3          8           0        1.362820    0.065630    1.951850
      4          8           0        1.288990    0.063150    3.418360
      5          1           0        2.224740    0.259740    3.587110
      6          1           0        0.567740   -0.895130   -0.338130
      7          1           0       -0.529300    0.912730    1.923810
      8          1           0       -0.481000   -0.879110    1.956720
      9          1           0       -1.002960   -0.038460   -0.363820
     10          1           0        0.524490    0.892580   -0.373930
 ---------------------------------------------------------------------

 SCF Done:  E(RHF) =  -228.942658680     A.U. after   12 cycles
 E2 =    -0.9026431427D+00 EUMP2 =    -0.22984530182304D+03

 Alpha  occ. eigenvalues --  -20.61819 -20.61753 -11.28144 -11.22512  -1.46349
 Alpha  occ. eigenvalues --   -1.22832  -1.00137  -0.83905  -0.69974  -0.67467
 Alpha  occ. eigenvalues --   -0.65454  -0.57973  -0.54578  -0.53471  -0.50325
 Alpha  occ. eigenvalues --   -0.49996  -0.43322
 Alpha virt. eigenvalues --    0.11638   0.13167   0.15911   0.17262   0.18689
 Alpha virt. eigenvalues --    0.21132   0.22671   0.26959   0.27059   0.30927
 Alpha virt. eigenvalues --    0.31033   0.35745   0.37415   0.45535   0.46459

 Mulliken charges:
               1
     1  C   -0.215409
     2  C    0.177393
     3  O   -0.247370
     4  O   -0.298611
     5  H    0.270733
     6  H    0.080920
     7  H    0.042102
     8  H    0.043755
     9  H    0.067339
    10  H    0.079148
 Sum of Mulliken charges =   0.00000

 Dipole moment (field-independent basis, Debye):
    X=             -0.0856    Y=              0.2802    Z=             -0.4698  Tot=              0.5537
 Quadrupole moment (field-independent basis, Debye-Ang):
   XX=            -21.7847   YY=            -25.1992   ZZ=            -26.1792
   XY=              0.9054   XZ=              3.0217   YZ=              1.1818

 Normal termination of Gaussian 09 at Wed Dec 20 22:50:03 2017.
