 Gaussian 09, Revision D.01,
 Gaussian 09:  EM64L-G09RevD.01 24-Apr-2013

 ------------------------
 #P MP2/cc-pVQZ SP Nosymm
 ------------------------

 ------
 PEscan
 ------
 Symbolic Z-matrix:
 Charge =  0 Multiplicity = 1

                          Input orientation:
 ---------------------------------------------------------------------
 Center     Atomic      Atomic             Coordinates (Angstroms)
 Number     Number       Type             X           Y           Z
 ---------------------------------------------------------------------
      1          6           0        0.013750   -0.033570    0.051800
      2          6           0        0.159960    0.200230    1.546490
      3          8           0        1.533670   -0.008790    1.844180
      4          8           0        1.716250    0.278760    3.254140
      5          1           0        1.245280   -0.477150    3.650470
      6          1           0        0.328440   -1.055200   -0.212210
      7          1           0       -0.137480    1.225690    1.831230
      8          1           0       -0.468310   -0.513670    2.120140
      9          1           0       -1.037560    0.100700   -0.248680
     10          1           0        0.635890    0.681140   -0.508630
 ---------------------------------------------------------------------

 SCF Done:  E(RHF) =  -228.941839428     A.U. after   13 cycles
 E2 =    -0.9021756911D+00 EUMP2 =    -0.22984401511894D+03

 Alpha  occ. eigenvalues --  -20.62077 -20.62046 -11.28984 -11.22979  -1.47151
 Alpha  occ. eigenvalues --   -1.22620  -1.00825  -0.84759  -0.72105  -0.66939
 Alpha  occ. eigenvalues --   -0.62747  -0.61722  -0.54770  -0.52695  -0.50747
 Alpha  occ. eigenvalues --   -0.49143  -0.45137
 Alpha virt. eigenvalues --    0.10684   0.12639   0.16122   0.17068   0.18881
 Alpha virt. eigenvalues --    0.20713   0.22825   0.26426   0.27097   0.30111
 Alpha virt. eigenvalues --    0.32454   0.35116   0.36501   0.44235   0.45751

 Mulliken charges:
               1
     1  C   -0.211651
     2  C    0.168120
     3  O   -0.221350
     4  O   -0.297239
     5  H    0.269306
     6  H    0.081013
     7  H    0.057533
     8  H   -0.000600
     9  H    0.066497
    10  H    0.088371
 Sum of Mulliken charges =   0.00000

 Dipole moment (field-independent basis, Debye):
    X=             -2.5220    Y=             -0.9760    Z=             -0.0873  Tot=              2.7056
 Quadrupole moment (field-independent basis, Debye-Ang):
   XX=            -31.2105   YY=            -24.5853   ZZ=            -23.1946
   XY=             -1.4847   XZ=             -5.4700   YZ=             -4.4843

 Normal termination of Gaussian 09 at Thu Dec 21 01:17:37 2017.
