 Gaussian 09, Revision D.01,
 Gaussian 09:  EM64L-G09RevD.01 24-Apr-2013

 ----------------------------
 #P CCSD(T)/cc-pVDZ SP Nosymm
 ----------------------------

 ------
 PEscan
 ------
 Symbolic Z-matrix:
 Charge =  0 Multiplicity = 1

                          Input orientation:
 ---------------------------------------------------------------------
 Center     Atomic      Atomic             Coordinates (Angstroms)
 Number     Number       Type             X           Y           Z
 ---------------------------------------------------------------------
      1          6           0        0.017460   -0.037070    0.042420
      2          6           0        0.110190    0.222460    1.537470
      3          8           0        1.469400   -0.007350    1.888100
      4          8           0        1.587220    0.311840    3.302050
      5          1           0        1.553820   -0.588750    3.668650
      6          1           0        0.311870   -1.072350   -0.190890
      7          1           0       -0.171850    1.261310    1.786140
      8          1           0       -0.552650   -0.460640    2.104600
      9          1           0       -1.016910    0.120600   -0.302450
     10          1           0        0.681350    0.648100   -0.507160
 ---------------------------------------------------------------------

 SCF Done:  E(RHF) =  -228.854952599     A.U. after   13 cycles
 E2 =    -0.6703769673D+00 EUMP2 =    -0.22952532956627D+03
 CCSD(T)
 CCSD(T)= -0.22958594589D+03

 Alpha  occ. eigenvalues --  -20.61909 -20.61786 -11.28890 -11.23413  -1.46809
 Alpha  occ. eigenvalues --   -1.22511  -1.00450  -0.84065  -0.71577  -0.65952
 Alpha  occ. eigenvalues --   -0.63374  -0.60741  -0.54050  -0.52305  -0.50129
 Alpha  occ. eigenvalues --   -0.48079  -0.44720
 Alpha virt. eigenvalues --    0.18116   0.18917   0.23558   0.24311   0.26133
 Alpha virt. eigenvalues --    0.28365   0.28804   0.36399   0.39946   0.59237
 Alpha virt. eigenvalues --    0.61381   0.67937   0.74656   0.76274   0.81775

 Mulliken charges:
               1
     1  C   -0.087622
     2  C    0.194336
     3  O   -0.311003
     4  O   -0.192279
     5  H    0.200181
     6  H    0.046955
     7  H    0.039761
     8  H    0.017511
     9  H    0.038577
    10  H    0.053582
 Sum of Mulliken charges =   0.00000

 Dipole moment (field-independent basis, Debye):
    X=             -1.8131    Y=             -1.2810    Z=             -0.0177  Tot=              2.2201
 Quadrupole moment (field-independent basis, Debye-Ang):
   XX=            -28.7981   YY=            -24.1689   ZZ=            -22.9054
   XY=             -2.4629   XZ=             -2.7088   YZ=             -5.6611

 CCSD(T)/cc-pVDZ SP Nosymm\\PEscan\\0,1\C,0,0.01746,-0.03707,0.04242\C,
 P4DQ=-229.5606106\MP4SDQ=-229.5659777\CCSD=-229.5663639\CCSD(T)=-229.5
 Normal termination of Gaussian 09 at Thu Dec 21 02:52:21 2017.
