 Gaussian 09, Revision D.01,
 Gaussian 09:  EM64L-G09RevD.01 24-Apr-2013

 ------------------------
 #P MP2/cc-pVQZ SP Nosymm
 ------------------------

 ------
 PEscan
 ------
 Symbolic Z-matrix:
 Charge =  0 Multiplicity = 1

                          Input orientation:
 ---------------------------------------------------------------------
 Center     Atomic      Atomic             Coordinates (Angstroms)
 Number     Number       Type             X           Y           Z
 ---------------------------------------------------------------------
      1          6           0        0.022850   -0.031890    0.028100
      2          6           0        0.046480    0.214020    1.527960
      3          8           0        1.360610   -0.106150    1.954470
      4          8           0        1.363740    0.207170    3.386940
      5          1           0        2.019610   -0.455330    3.659160
      6          1           0        0.258600   -1.084220   -0.195680
      7          1           0       -0.176250    1.271040    1.764260
      8          1           0       -0.688820   -0.421490    2.056000
      9          1           0       -0.977600    0.196370   -0.372650
     10          1           0        0.760680    0.608620   -0.479630
 ---------------------------------------------------------------------

 SCF Done:  E(RHF) =  -228.942953734     A.U. after   13 cycles
 E2 =    -0.9025437382D+00 EUMP2 =    -0.22984549747176D+03

 Alpha  occ. eigenvalues --  -20.61832 -20.61774 -11.28185 -11.22526  -1.46407
 Alpha  occ. eigenvalues --   -1.22789  -1.00168  -0.83897  -0.70641  -0.66674
 Alpha  occ. eigenvalues --   -0.65453  -0.58741  -0.54204  -0.53248  -0.50288
 Alpha  occ. eigenvalues --   -0.49902  -0.43608
 Alpha virt. eigenvalues --    0.11568   0.13140   0.15904   0.17229   0.18705
 Alpha virt. eigenvalues --    0.21084   0.22734   0.27031   0.27047   0.30787
 Alpha virt. eigenvalues --    0.31039   0.35907   0.37207   0.45869   0.46571

 Mulliken charges:
               1
     1  C   -0.214668
     2  C    0.176834
     3  O   -0.245549
     4  O   -0.303084
     5  H    0.275496
     6  H    0.078029
     7  H    0.044927
     8  H    0.038799
     9  H    0.066553
    10  H    0.082663
 Sum of Mulliken charges =   0.00000

 Dipole moment (field-independent basis, Debye):
    X=             -0.5262    Y=             -0.7733    Z=             -0.3111  Tot=              0.9857
 Quadrupole moment (field-independent basis, Debye-Ang):
   XX=            -24.0106   YY=            -24.7291   ZZ=            -24.8719
   XY=             -2.1553   XZ=              1.6133   YZ=             -3.8624

 Normal termination of Gaussian 09 at Thu Dec 21 02:06:14 2017.
