 Gaussian 09, Revision D.01,
 Gaussian 09:  EM64L-G09RevD.01 24-Apr-2013

 ----------------------------
 #P CCSD(T)/cc-pVDZ SP Nosymm
 ----------------------------

 ------
 PEscan
 ------
 Symbolic Z-matrix:
 Charge =  0 Multiplicity = 1

                          Input orientation:
 ---------------------------------------------------------------------
 Center     Atomic      Atomic             Coordinates (Angstroms)
 Number     Number       Type             X           Y           Z
 ---------------------------------------------------------------------
      1          6           0        0.011180   -0.027300    0.059410
      2          6           0        0.198170    0.167560    1.554890
      3          8           0        1.578340   -0.027440    1.809890
      4          8           0        1.806300    0.170400    3.233430
      5          1           0        1.020670   -0.262690    3.615650
      6          1           0        0.337570   -1.035180   -0.239680
      7          1           0       -0.113570    1.179840    1.875800
      8          1           0       -0.401630   -0.577420    2.122960
      9          1           0       -1.050760    0.095650   -0.206020
     10          1           0        0.603620    0.714720   -0.497390
 ---------------------------------------------------------------------

 SCF Done:  E(RHF) =  -228.848371478     A.U. after   14 cycles
 E2 =    -0.6712937338D+00 EUMP2 =    -0.22951966521219D+03
 CCSD(T)
 CCSD(T)= -0.22958029211D+03

 Alpha  occ. eigenvalues --  -20.62038 -20.61992 -11.29926 -11.24009  -1.47051
 Alpha  occ. eigenvalues --   -1.22766  -1.01234  -0.85412  -0.71113  -0.67404
 Alpha  occ. eigenvalues --   -0.62894  -0.59934  -0.55333  -0.52856  -0.50545
 Alpha  occ. eigenvalues --   -0.50237  -0.43719
 Alpha virt. eigenvalues --    0.17319   0.18458   0.23367   0.23743   0.26311
 Alpha virt. eigenvalues --    0.28022   0.28349   0.36940   0.38978   0.58662
 Alpha virt. eigenvalues --    0.61585   0.67177   0.73568   0.75569   0.79911

 Mulliken charges:
               1
     1  C   -0.073102
     2  C    0.148762
     3  O   -0.291385
     4  O   -0.179594
     5  H    0.187172
     6  H    0.053864
     7  H    0.041259
     8  H    0.016174
     9  H    0.039559
    10  H    0.057291
 Sum of Mulliken charges =   0.00000

 Dipole moment (field-independent basis, Debye):
    X=             -3.1221    Y=             -0.4672    Z=             -0.0806  Tot=              3.1579
 Quadrupole moment (field-independent basis, Debye-Ang):
   XX=            -32.5276   YY=            -24.9618   ZZ=            -22.9329
   XY=             -0.6667   XZ=             -7.5029   YZ=             -2.3747

 CCSD(T)/cc-pVDZ SP Nosymm\\PEscan\\0,1\C,0,0.01118,-0.0273,0.05941\C,0
 P4DQ=-229.5547146\MP4SDQ=-229.5601667\CCSD=-229.5604864\CCSD(T)=-229.5
 Normal termination of Gaussian 09 at Thu Dec 21 02:46:29 2017.
