 Gaussian 09, Revision D.01,
 Gaussian 09:  EM64L-G09RevD.01 24-Apr-2013

 ------------------------
 #P MP2/cc-pVQZ SP Nosymm
 ------------------------

 ------
 PEscan
 ------
 Symbolic Z-matrix:
 Charge =  0 Multiplicity = 1

                          Input orientation:
 ---------------------------------------------------------------------
 Center     Atomic      Atomic             Coordinates (Angstroms)
 Number     Number       Type             X           Y           Z
 ---------------------------------------------------------------------
      1          6           0        0.010610   -0.024400    0.060370
      2          6           0        0.204360    0.153200    1.557150
      3          8           0        1.585870   -0.037410    1.802370
      4          8           0        1.826590    0.123710    3.231250
      5          1           0        0.978860   -0.173260    3.609340
      6          1           0        0.338570   -1.027860   -0.251260
      7          1           0       -0.111950    1.161280    1.889330
      8          1           0       -0.388630   -0.601820    2.118880
      9          1           0       -1.052910    0.098880   -0.198390
     10          1           0        0.598530    0.725820   -0.490110
 ---------------------------------------------------------------------

 SCF Done:  E(RHF) =  -228.936127315     A.U. after   13 cycles
 E2 =    -0.9029603355D+00 EUMP2 =    -0.22983908765097D+03

 Alpha  occ. eigenvalues --  -20.62114 -20.62017 -11.29680 -11.23365  -1.46939
 Alpha  occ. eigenvalues --   -1.22890  -1.01318  -0.85664  -0.71177  -0.67998
 Alpha  occ. eigenvalues --   -0.63463  -0.59711  -0.55961  -0.53326  -0.50952
 Alpha  occ. eigenvalues --   -0.50866  -0.43970
 Alpha virt. eigenvalues --    0.10533   0.12447   0.15982   0.17000   0.18652
 Alpha virt. eigenvalues --    0.20487   0.22452   0.25685   0.26512   0.29770
 Alpha virt. eigenvalues --    0.33974   0.34495   0.36319   0.44554   0.45272

 Mulliken charges:
               1
     1  C   -0.208380
     2  C    0.157393
     3  O   -0.210016
     4  O   -0.289860
     5  H    0.257659
     6  H    0.087257
     7  H    0.046795
     8  H    0.001792
     9  H    0.067028
    10  H    0.090333
 Sum of Mulliken charges =   0.00000

 Dipole moment (field-independent basis, Debye):
    X=             -3.1692    Y=             -0.2422    Z=             -0.1987  Tot=              3.1847
 Quadrupole moment (field-independent basis, Debye-Ang):
   XX=            -32.7135   YY=            -25.1696   ZZ=            -23.6180
   XY=             -0.3171   XZ=             -7.8780   YZ=             -1.5104

 Normal termination of Gaussian 09 at Thu Dec 21 00:53:10 2017.
