 Gaussian 09, Revision D.01,
 Gaussian 09:  EM64L-G09RevD.01 24-Apr-2013

 ------------------------
 #P MP2/cc-pVQZ SP Nosymm
 ------------------------

 ------
 PEscan
 ------
 Symbolic Z-matrix:
 Charge =  0 Multiplicity = 1

                          Input orientation:
 ---------------------------------------------------------------------
 Center     Atomic      Atomic             Coordinates (Angstroms)
 Number     Number       Type             X           Y           Z
 ---------------------------------------------------------------------
      1          6           0        0.022440    0.007040    0.041910
      2          6           0        0.092280   -0.013650    1.560320
      3          8           0        1.470860   -0.145370    1.885120
      4          8           0        1.550970   -0.245160    3.331690
      5          1           0        1.636690    0.698310    3.556050
      6          1           0        0.428750   -0.928610   -0.372390
      7          1           0       -0.315120    0.923520    1.990600
      8          1           0       -0.476610   -0.861670    1.981840
      9          1           0       -1.024410    0.113070   -0.284510
     10          1           0        0.604030    0.850640   -0.361700
 ---------------------------------------------------------------------

 SCF Done:  E(RHF) =  -228.943352253     A.U. after   12 cycles
 E2 =    -0.9020229400D+00 EUMP2 =    -0.22984537519253D+03

 Alpha  occ. eigenvalues --  -20.62004 -20.61974 -11.28654 -11.22792  -1.46995
 Alpha  occ. eigenvalues --   -1.22591  -1.00570  -0.84331  -0.72151  -0.66483
 Alpha  occ. eigenvalues --   -0.63276  -0.61518  -0.54411  -0.52568  -0.50572
 Alpha  occ. eigenvalues --   -0.48573  -0.45373
 Alpha virt. eigenvalues --    0.10914   0.12803   0.16035   0.17114   0.18830
 Alpha virt. eigenvalues --    0.20816   0.22925   0.26697   0.27276   0.30284
 Alpha virt. eigenvalues --    0.31628   0.35561   0.36924   0.44578   0.46036

 Mulliken charges:
               1
     1  C   -0.213287
     2  C    0.171843
     3  O   -0.229972
     4  O   -0.302520
     5  H    0.275648
     6  H    0.087152
     7  H    0.011689
     8  H    0.054794
     9  H    0.066117
    10  H    0.078536
 Sum of Mulliken charges =   0.00000

 Dipole moment (field-independent basis, Debye):
    X=             -1.6070    Y=              1.7010    Z=             -0.3334  Tot=              2.3636
 Quadrupole moment (field-independent basis, Debye-Ang):
   XX=            -28.2453   YY=            -23.9376   ZZ=            -25.3131
   XY=              3.1075   XZ=             -2.4027   YZ=              6.2433

 Normal termination of Gaussian 09 at Wed Dec 20 23:39:27 2017.
