 Gaussian 09, Revision D.01,
 Gaussian 09:  EM64L-G09RevD.01 24-Apr-2013

 ------------------------
 #P MP2/cc-pVQZ SP Nosymm
 ------------------------

 ------
 PEscan
 ------
 Symbolic Z-matrix:
 Charge =  0 Multiplicity = 1

                          Input orientation:
 ---------------------------------------------------------------------
 Center     Atomic      Atomic             Coordinates (Angstroms)
 Number     Number       Type             X           Y           Z
 ---------------------------------------------------------------------
      1          6           0        0.023890   -0.030150    0.026520
      2          6           0        0.038910    0.209020    1.527500
      3          8           0        1.343330   -0.133250    1.964040
      4          8           0        1.327020    0.162310    3.401510
      5          1           0        2.085430   -0.391130    3.649360
      6          1           0        0.244750   -1.085170   -0.199610
      7          1           0       -0.169770    1.268240    1.767320
      8          1           0       -0.709930   -0.418120    2.046310
      9          1           0       -0.969480    0.215660   -0.381340
     10          1           0        0.775730    0.600740   -0.472690
 ---------------------------------------------------------------------

 SCF Done:  E(RHF) =  -228.942772235     A.U. after   13 cycles
 E2 =    -0.9026072308D+00 EUMP2 =    -0.22984537946563D+03

 Alpha  occ. eigenvalues --  -20.61824 -20.61761 -11.28159 -11.22516  -1.46369
 Alpha  occ. eigenvalues --   -1.22816  -1.00148  -0.83900  -0.70279  -0.67106
 Alpha  occ. eigenvalues --   -0.65459  -0.58303  -0.54383  -0.53395  -0.50312
 Alpha  occ. eigenvalues --   -0.49967  -0.43430
 Alpha virt. eigenvalues --    0.11612   0.13158   0.15908   0.17248   0.18695
 Alpha virt. eigenvalues --    0.21113   0.22695   0.26995   0.27048   0.30867
 Alpha virt. eigenvalues --    0.31038   0.35820   0.37305   0.45672   0.46494

 Mulliken charges:
               1
     1  C   -0.215078
     2  C    0.177182
     3  O   -0.246604
     4  O   -0.300415
     5  H    0.272656
     6  H    0.078498
     7  H    0.044257
     8  H    0.040677
     9  H    0.066986
    10  H    0.081841
 Sum of Mulliken charges =   0.00000

 Dipole moment (field-independent basis, Debye):
    X=             -0.3336    Y=             -0.5606    Z=             -0.3654  Tot=              0.7477
 Quadrupole moment (field-independent basis, Debye-Ang):
   XX=            -23.1616   YY=            -24.9151   ZZ=            -25.2366
   XY=             -1.7811   XZ=              2.2317   YZ=             -3.0636

 Normal termination of Gaussian 09 at Thu Dec 21 02:12:14 2017.
