 Gaussian 09, Revision D.01,
 Gaussian 09:  EM64L-G09RevD.01 24-Apr-2013

 ------------------------
 #P MP2/cc-pVQZ SP Nosymm
 ------------------------

 ------
 PEscan
 ------
 Symbolic Z-matrix:
 Charge =  0 Multiplicity = 1

                          Input orientation:
 ---------------------------------------------------------------------
 Center     Atomic      Atomic             Coordinates (Angstroms)
 Number     Number       Type             X           Y           Z
 ---------------------------------------------------------------------
      1          6           0        0.014170   -0.000080    0.058290
      2          6           0        0.185540    0.026730    1.568050
      3          8           0        1.568810   -0.152170    1.812190
      4          8           0        1.788210   -0.134770    3.253420
      5          1           0        1.072300    0.453530    3.555360
      6          1           0        0.346070   -0.969270   -0.344220
      7          1           0       -0.149550    1.003780    1.980720
      8          1           0       -0.400410   -0.776430    2.056140
      9          1           0       -1.045670    0.148050   -0.202540
     10          1           0        0.610430    0.798780   -0.408480
 ---------------------------------------------------------------------

 SCF Done:  E(RHF) =  -228.936128029     A.U. after   13 cycles
 E2 =    -0.9029598445D+00 EUMP2 =    -0.22983908787369D+03

 Alpha  occ. eigenvalues --  -20.62114 -20.62017 -11.29680 -11.23365  -1.46939
 Alpha  occ. eigenvalues --   -1.22890  -1.01318  -0.85664  -0.71176  -0.67998
 Alpha  occ. eigenvalues --   -0.63463  -0.59711  -0.55961  -0.53326  -0.50952
 Alpha  occ. eigenvalues --   -0.50866  -0.43970
 Alpha virt. eigenvalues --    0.10533   0.12447   0.15982   0.17000   0.18653
 Alpha virt. eigenvalues --    0.20487   0.22452   0.25685   0.26512   0.29770
 Alpha virt. eigenvalues --    0.33974   0.34495   0.36319   0.44554   0.45272

 Mulliken charges:
               1
     1  C   -0.208381
     2  C    0.157389
     3  O   -0.210016
     4  O   -0.289861
     5  H    0.257659
     6  H    0.090335
     7  H    0.001797
     8  H    0.046793
     9  H    0.067025
    10  H    0.087260
 Sum of Mulliken charges =   0.00000

 Dipole moment (field-independent basis, Debye):
    X=             -2.9677    Y=              1.1116    Z=             -0.3151  Tot=              3.1847
 Quadrupole moment (field-independent basis, Debye-Ang):
   XX=            -32.2287   YY=            -24.7592   ZZ=            -24.5548
   XY=              1.3432   XZ=             -7.2069   YZ=              3.9189

 Normal termination of Gaussian 09 at Thu Dec 21 00:16:25 2017.
