 Gaussian 09, Revision D.01,
 Gaussian 09:  EM64L-G09RevD.01 24-Apr-2013

 ----------------------------
 #P CCSD(T)/cc-pVDZ SP Nosymm
 ----------------------------

 ------
 PEscan
 ------
 Symbolic Z-matrix:
 Charge =  0 Multiplicity = 1

                          Input orientation:
 ---------------------------------------------------------------------
 Center     Atomic      Atomic             Coordinates (Angstroms)
 Number     Number       Type             X           Y           Z
 ---------------------------------------------------------------------
      1          6           0        0.027730   -0.006280    0.023730
      2          6           0        0.006660    0.023300    1.543230
      3          8           0        1.362820    0.065630    1.951850
      4          8           0        1.288990    0.063150    3.418360
      5          1           0        2.224740    0.259740    3.587110
      6          1           0        0.567740   -0.895130   -0.338130
      7          1           0       -0.529300    0.912730    1.923810
      8          1           0       -0.481000   -0.879110    1.956720
      9          1           0       -1.002960   -0.038460   -0.363820
     10          1           0        0.524490    0.892580   -0.373930
 ---------------------------------------------------------------------

 SCF Done:  E(RHF) =  -228.854542010     A.U. after   14 cycles
 E2 =    -0.6703486337D+00 EUMP2 =    -0.22952489064400D+03
 CCSD(T)
 CCSD(T)= -0.22958537460D+03

 Alpha  occ. eigenvalues --  -20.61670 -20.61632 -11.28469 -11.23187  -1.46204
 Alpha  occ. eigenvalues --   -1.22664  -1.00098  -0.83743  -0.69488  -0.67027
 Alpha  occ. eigenvalues --   -0.65036  -0.57556  -0.54180  -0.53198  -0.49976
 Alpha  occ. eigenvalues --   -0.49505  -0.42733
 Alpha virt. eigenvalues --    0.18453   0.19777   0.23710   0.24585   0.25638
 Alpha virt. eigenvalues --    0.28082   0.29144   0.36479   0.40017   0.59615
 Alpha virt. eigenvalues --    0.61889   0.67709   0.75466   0.76198   0.82243

 Mulliken charges:
               1
     1  C   -0.086801
     2  C    0.205406
     3  O   -0.325252
     4  O   -0.191409
     5  H    0.196029
     6  H    0.048975
     7  H    0.032263
     8  H    0.034526
     9  H    0.038568
    10  H    0.047693
 Sum of Mulliken charges =   0.00000

 Dipole moment (field-independent basis, Debye):
    X=             -0.0697    Y=              0.2939    Z=             -0.4010  Tot=              0.5020
 Quadrupole moment (field-independent basis, Debye-Ang):
   XX=            -21.5222   YY=            -25.0588   ZZ=            -25.6780
   XY=              0.9173   XZ=              3.1819   YZ=              1.2272

 CCSD(T)/cc-pVDZ SP Nosymm\\PEscan\\0,1\C,0,0.02773,-0.00628,0.02373\C,
 4DQ=-229.5600458\MP4SDQ=-229.5653825\CCSD=-229.5657942\CCSD(T)=-229.58
 Normal termination of Gaussian 09 at Thu Dec 21 02:26:02 2017.
