 Gaussian 09, Revision D.01,
 Gaussian 09:  EM64L-G09RevD.01 24-Apr-2013

 ----------------------------
 #P CCSD(T)/cc-pVDZ SP Nosymm
 ----------------------------

 ------
 PEscan
 ------
 Symbolic Z-matrix:
 Charge =  0 Multiplicity = 1

                          Input orientation:
 ---------------------------------------------------------------------
 Center     Atomic      Atomic             Coordinates (Angstroms)
 Number     Number       Type             X           Y           Z
 ---------------------------------------------------------------------
      1          6           0        0.024720    0.005850    0.035590
      2          6           0        0.059200   -0.012950    1.555360
      3          8           0        1.432190   -0.114220    1.911010
      4          8           0        1.463830   -0.208920    3.364470
      5          1           0        1.846580    0.662870    3.561900
      6          1           0        0.464770   -0.918530   -0.369600
      7          1           0       -0.378910    0.911230    1.979750
      8          1           0       -0.498510   -0.876520    1.960520
      9          1           0       -1.016730    0.084570   -0.314980
     10          1           0        0.592750    0.864760   -0.355100
 ---------------------------------------------------------------------

 SCF Done:  E(RHF) =  -228.855114648     A.U. after   14 cycles
 E2 =    -0.6703576799D+00 EUMP2 =    -0.22952547232751D+03
 CCSD(T)
 CCSD(T)= -0.22958608064D+03

 Alpha  occ. eigenvalues --  -20.61854 -20.61745 -11.28781 -11.23348  -1.46672
 Alpha  occ. eigenvalues --   -1.22525  -1.00355  -0.83937  -0.71386  -0.65798
 Alpha  occ. eigenvalues --   -0.63876  -0.60282  -0.53944  -0.52340  -0.50044
 Alpha  occ. eigenvalues --   -0.48340  -0.44377
 Alpha virt. eigenvalues --    0.18333   0.18976   0.23573   0.24351   0.26040
 Alpha virt. eigenvalues --    0.28316   0.28877   0.36372   0.40009   0.59330
 Alpha virt. eigenvalues --    0.61551   0.67993   0.74405   0.76338   0.82033

 Mulliken charges:
               1
     1  C   -0.088308
     2  C    0.198578
     3  O   -0.314464
     4  O   -0.193854
     5  H    0.201194
     6  H    0.052917
     7  H    0.019938
     8  H    0.039026
     9  H    0.038509
    10  H    0.046465
 Sum of Mulliken charges =   0.00000

 Dipole moment (field-independent basis, Debye):
    X=             -1.1041    Y=              1.6432    Z=             -0.3008  Tot=              2.0024
 Quadrupole moment (field-independent basis, Debye-Ang):
   XX=            -26.0458   YY=            -24.0075   ZZ=            -25.1445
   XY=              3.3360   XZ=             -0.5082   YZ=              6.0012

 CCSD(T)/cc-pVDZ SP Nosymm\\PEscan\\0,1\C,0,0.02472,0.00585,0.03559\C,0
 4DQ=-229.5607447\MP4SDQ=-229.566106\CCSD=-229.5664999\CCSD(T)=-229.586
 Normal termination of Gaussian 09 at Thu Dec 21 02:32:05 2017.
