 Gaussian 09, Revision D.01,
 Gaussian 09:  EM64L-G09RevD.01 24-Apr-2013

 ----------------------------
 #P CCSD(T)/cc-pVDZ SP Nosymm
 ----------------------------

 ------
 PEscan
 ------
 Symbolic Z-matrix:
 Charge =  0 Multiplicity = 1

                          Input orientation:
 ---------------------------------------------------------------------
 Center     Atomic      Atomic             Coordinates (Angstroms)
 Number     Number       Type             X           Y           Z
 ---------------------------------------------------------------------
      1          6           0        0.011610   -0.007260    0.058940
      2          6           0        0.199150    0.064300    1.565450
      3          8           0        1.582290   -0.121510    1.799380
      4          8           0        1.835430   -0.053770    3.238150
      5          1           0        0.982940    0.263820    3.584310
      6          1           0        0.338400   -0.988300   -0.318050
      7          1           0       -0.124800    1.053430    1.954090
      8          1           0       -0.388660   -0.724780    2.077540
      9          1           0       -1.050690    0.135190   -0.194780
     10          1           0        0.604240    0.777020   -0.436090
 ---------------------------------------------------------------------

 SCF Done:  E(RHF) =  -228.844559744     A.U. after   14 cycles
 E2 =    -0.6713869482D+00 EUMP2 =    -0.22951594669179D+03
 CCSD(T)
 CCSD(T)= -0.22957660165D+03

 Alpha  occ. eigenvalues --  -20.61980 -20.61945 -11.30214 -11.24174  -1.46716
 Alpha  occ. eigenvalues --   -1.22971  -1.01430  -0.85788  -0.70314  -0.68107
 Alpha  occ. eigenvalues --   -0.63195  -0.58313  -0.56415  -0.53242  -0.51051
 Alpha  occ. eigenvalues --   -0.50488  -0.43122
 Alpha virt. eigenvalues --    0.17472   0.18301   0.23119   0.23418   0.25950
 Alpha virt. eigenvalues --    0.27713   0.28055   0.36842   0.38610   0.58628
 Alpha virt. eigenvalues --    0.62259   0.66737   0.73604   0.74862   0.77916

 Mulliken charges:
               1
     1  C   -0.062945
     2  C    0.129390
     3  O   -0.289281
     4  O   -0.177333
     5  H    0.183158
     6  H    0.057643
     7  H    0.027446
     8  H    0.035315
     9  H    0.039807
    10  H    0.056801
 Sum of Mulliken charges =   0.00000

 Dipole moment (field-independent basis, Debye):
    X=             -3.2684    Y=              0.7310    Z=             -0.1669  Tot=              3.3533
 Quadrupole moment (field-independent basis, Debye-Ang):
   XX=            -32.8228   YY=            -25.0249   ZZ=            -23.4288
   XY=              0.8151   XZ=             -8.0439   YZ=              2.3690

 CCSD(T)/cc-pVDZ SP Nosymm\\PEscan\\0,1\C,0,0.01161,-0.00726,0.05894\C,
 MP4DQ=-229.5509329\MP4SDQ=-229.5563914\CCSD=-229.5567044\CCSD(T)=-229.
 Normal termination of Gaussian 09 at Thu Dec 21 02:41:45 2017.
