 Gaussian 09, Revision D.01,
 Gaussian 09:  EM64L-G09RevD.01 24-Apr-2013

 ------------------------
 #P MP2/cc-pVQZ SP Nosymm
 ------------------------

 ------
 PEscan
 ------
 Symbolic Z-matrix:
 Charge =  0 Multiplicity = 1

                          Input orientation:
 ---------------------------------------------------------------------
 Center     Atomic      Atomic             Coordinates (Angstroms)
 Number     Number       Type             X           Y           Z
 ---------------------------------------------------------------------
      1          6           0        0.020810   -0.035140    0.032940
      2          6           0        0.067350    0.222750    1.530410
      3          8           0        1.401390   -0.054490    1.930750
      4          8           0        1.447600    0.272060    3.355330
      5          1           0        1.855100   -0.551990    3.669750
      6          1           0        0.283720   -1.081460   -0.188890
      7          1           0       -0.183380    1.273670    1.764140
      8          1           0       -0.638280   -0.431030    2.077110
      9          1           0       -0.993710    0.160430   -0.349400
     10          1           0        0.729280    0.623340   -0.493200
 ---------------------------------------------------------------------

 SCF Done:  E(RHF) =  -228.943422208     A.U. after   13 cycles
 E2 =    -0.9023492696D+00 EUMP2 =    -0.22984577147786D+03

 Alpha  occ. eigenvalues --  -20.61865 -20.61819 -11.28272 -11.22569  -1.46545
 Alpha  occ. eigenvalues --   -1.22717  -1.00241  -0.83925  -0.71336  -0.66071
 Alpha  occ. eigenvalues --   -0.65168  -0.59713  -0.54084  -0.52860  -0.50291
 Alpha  occ. eigenvalues --   -0.49528  -0.44163
 Alpha virt. eigenvalues --    0.11418   0.13074   0.15900   0.17190   0.18734
 Alpha virt. eigenvalues --    0.21007   0.22835   0.26976   0.27178   0.30602
 Alpha virt. eigenvalues --    0.31057   0.35997   0.37201   0.46020   0.46505

 Mulliken charges:
               1
     1  C   -0.214099
     2  C    0.176429
     3  O   -0.242710
     4  O   -0.308227
     5  H    0.281082
     6  H    0.077396
     7  H    0.047314
     8  H    0.032732
     9  H    0.065959
    10  H    0.084123
 Sum of Mulliken charges =   0.00000

 Dipole moment (field-independent basis, Debye):
    X=             -0.9865    Y=             -1.0917    Z=             -0.2124  Tot=              1.4867
 Quadrupole moment (field-independent basis, Debye-Ang):
   XX=            -25.9515   YY=            -24.3962   ZZ=            -24.2287
   XY=             -2.5691   XZ=              0.0533   YZ=             -5.0497

 Normal termination of Gaussian 09 at Thu Dec 21 01:54:05 2017.
