 Gaussian 09, Revision D.01,
 Gaussian 09:  EM64L-G09RevD.01 24-Apr-2013

 ------------------------
 #P MP2/cc-pVQZ SP Nosymm
 ------------------------

 ------
 PEscan
 ------
 Symbolic Z-matrix:
 Charge =  0 Multiplicity = 1

                          Input orientation:
 ---------------------------------------------------------------------
 Center     Atomic      Atomic             Coordinates (Angstroms)
 Number     Number       Type             X           Y           Z
 ---------------------------------------------------------------------
      1          6           0        0.025470    0.004360    0.032570
      2          6           0        0.045420   -0.009150    1.552650
      3          8           0        1.415360   -0.090130    1.921840
      4          8           0        1.423310   -0.179830    3.378690
      5          1           0        1.939780    0.621670    3.567000
      6          1           0        0.482520   -0.914690   -0.365910
      7          1           0       -0.409440    0.908820    1.971530
      8          1           0       -0.503500   -0.880420    1.953890
      9          1           0       -1.013620    0.067130   -0.328040
     10          1           0        0.584600    0.870390   -0.355310
 ---------------------------------------------------------------------

 SCF Done:  E(RHF) =  -228.943626719     A.U. after   13 cycles
 E2 =    -0.9022345781D+00 EUMP2 =    -0.22984586129728D+03

 Alpha  occ. eigenvalues --  -20.61891 -20.61852 -11.28337 -11.22607  -1.46646
 Alpha  occ. eigenvalues --   -1.22675  -1.00299  -0.83973  -0.71630  -0.66058
 Alpha  occ. eigenvalues --   -0.64764  -0.60200  -0.54114  -0.52711  -0.50337
 Alpha  occ. eigenvalues --   -0.49220  -0.44517
 Alpha virt. eigenvalues --    0.11311   0.13024   0.15909   0.17174   0.18752
 Alpha virt. eigenvalues --    0.20962   0.22884   0.26934   0.27240   0.30512
 Alpha virt. eigenvalues --    0.31102   0.35968   0.37240   0.45700   0.46285

 Mulliken charges:
               1
     1  C   -0.214019
     2  C    0.176431
     3  O   -0.240604
     4  O   -0.308913
     5  H    0.281974
     6  H    0.084870
     7  H    0.028219
     8  H    0.048909
     9  H    0.065879
    10  H    0.077254
 Sum of Mulliken charges =   0.00000

 Dipole moment (field-independent basis, Debye):
    X=             -0.8493    Y=              1.4514    Z=             -0.3976  Tot=              1.7280
 Quadrupole moment (field-independent basis, Debye-Ang):
   XX=            -25.2531   YY=            -24.2214   ZZ=            -25.8132
   XY=              3.1541   XZ=              0.2692   YZ=              5.3804

 Normal termination of Gaussian 09 at Wed Dec 20 23:21:11 2017.
