 Gaussian 09, Revision D.01,
 Gaussian 09:  EM64L-G09RevD.01 24-Apr-2013

 ----------------------------
 #P CCSD(T)/cc-pVDZ SP Nosymm
 ----------------------------

 ------
 PEscan
 ------
 Symbolic Z-matrix:
 Charge =  0 Multiplicity = 1

                          Input orientation:
 ---------------------------------------------------------------------
 Center     Atomic      Atomic             Coordinates (Angstroms)
 Number     Number       Type             X           Y           Z
 ---------------------------------------------------------------------
      1          6           0        0.023700    0.006760    0.038730
      2          6           0        0.074930   -0.014480    1.557950
      3          8           0        1.450850   -0.132690    1.898660
      4          8           0        1.506770   -0.231000    3.348570
      5          1           0        1.744710    0.688770    3.558290
      6          1           0        0.446800   -0.923120   -0.371810
      7          1           0       -0.347330    0.916090    1.986160
      8          1           0       -0.489390   -0.870270    1.969980
      9          1           0       -1.020360    0.099890   -0.300350
     10          1           0        0.599200    0.858190   -0.357250
 ---------------------------------------------------------------------

 SCF Done:  E(RHF) =  -228.854952091     A.U. after   13 cycles
 E2 =    -0.6703774815D+00 EUMP2 =    -0.22952532957271D+03
 CCSD(T)
 CCSD(T)= -0.22958594593D+03

 Alpha  occ. eigenvalues --  -20.61909 -20.61786 -11.28891 -11.23413  -1.46809
 Alpha  occ. eigenvalues --   -1.22511  -1.00450  -0.84065  -0.71576  -0.65952
 Alpha  occ. eigenvalues --   -0.63374  -0.60741  -0.54050  -0.52305  -0.50129
 Alpha  occ. eigenvalues --   -0.48079  -0.44720
 Alpha virt. eigenvalues --    0.18116   0.18917   0.23558   0.24311   0.26133
 Alpha virt. eigenvalues --    0.28365   0.28804   0.36399   0.39947   0.59237
 Alpha virt. eigenvalues --    0.61381   0.67937   0.74656   0.76274   0.81775

 Mulliken charges:
               1
     1  C   -0.087619
     2  C    0.194334
     3  O   -0.311004
     4  O   -0.192279
     5  H    0.200182
     6  H    0.053582
     7  H    0.017511
     8  H    0.039762
     9  H    0.038577
    10  H    0.046955
 Sum of Mulliken charges =   0.00000

 Dipole moment (field-independent basis, Debye):
    X=             -1.3646    Y=              1.7291    Z=             -0.2767  Tot=              2.2201
 Quadrupole moment (field-independent basis, Debye-Ang):
   XX=            -27.0771   YY=            -23.9217   ZZ=            -24.9664
   XY=              3.3296   XZ=             -1.4225   YZ=              6.2926

 CCSD(T)/cc-pVDZ SP Nosymm\\PEscan\\0,1\C,0,0.0237,0.00676,0.03873\C,0,
 P4DQ=-229.5606105\MP4SDQ=-229.5659777\CCSD=-229.5663639\CCSD(T)=-229.5
 Normal termination of Gaussian 09 at Thu Dec 21 02:33:06 2017.
