 Gaussian 09, Revision D.01,
 Gaussian 09:  EM64L-G09RevD.01 24-Apr-2013

 ----------------------------
 #P CCSD(T)/cc-pVDZ SP Nosymm
 ----------------------------

 ------
 PEscan
 ------
 Symbolic Z-matrix:
 Charge =  0 Multiplicity = 1

                          Input orientation:
 ---------------------------------------------------------------------
 Center     Atomic      Atomic             Coordinates (Angstroms)
 Number     Number       Type             X           Y           Z
 ---------------------------------------------------------------------
      1          6           0        0.010690   -0.011870    0.059150
      2          6           0        0.203650    0.088750    1.563340
      3          8           0        1.586870   -0.097400    1.795940
      4          8           0        1.846380   -0.012450    3.233370
      5          1           0        0.958690    0.151130    3.597050
      6          1           0        0.337620   -0.999270   -0.300670
      7          1           0       -0.118520    1.083290    1.936820
      8          1           0       -0.383250   -0.692910    2.089600
      9          1           0       -1.052650    0.124900   -0.193340
     10          1           0        0.600420    0.763970   -0.452330
 ---------------------------------------------------------------------

 SCF Done:  E(RHF) =  -228.844249472     A.U. after   12 cycles
 E2 =    -0.6713749704D+00 EUMP2 =    -0.22951562444217D+03
 CCSD(T)
 CCSD(T)= -0.22957628260D+03

 Alpha  occ. eigenvalues --  -20.61975 -20.61939 -11.30230 -11.24184  -1.46679
 Alpha  occ. eigenvalues --   -1.22990  -1.01441  -0.85809  -0.70224  -0.68184
 Alpha  occ. eigenvalues --   -0.63213  -0.58084  -0.56599  -0.53272  -0.51096
 Alpha  occ. eigenvalues --   -0.50480  -0.43079
 Alpha virt. eigenvalues --    0.17487   0.18295   0.23089   0.23397   0.25906
 Alpha virt. eigenvalues --    0.27687   0.28026   0.36814   0.38592   0.58634
 Alpha virt. eigenvalues --    0.62318   0.66702   0.73696   0.74739   0.77766

 Mulliken charges:
               1
     1  C   -0.061935
     2  C    0.127616
     3  O   -0.289185
     4  O   -0.177208
     5  H    0.182869
     6  H    0.057335
     7  H    0.031678
     8  H    0.031678
     9  H    0.039816
    10  H    0.057335
 Sum of Mulliken charges =   0.00000

 Dipole moment (field-independent basis, Debye):
    X=             -3.3282    Y=              0.4840    Z=             -0.1399  Tot=              3.3661
 Quadrupole moment (field-independent basis, Debye-Ang):
   XX=            -32.9647   YY=            -25.1303   ZZ=            -23.2060
   XY=              0.5045   XZ=             -8.2388   YZ=              1.3988

 CCSD(T)/cc-pVDZ SP Nosymm\\PEscan\\0,1\C,0,0.01069,-0.01187,0.05915\C,
 \MP4DQ=-229.5506098\MP4SDQ=-229.5560669\CCSD=-229.5563804\CCSD(T)=-229
 Normal termination of Gaussian 09 at Thu Dec 21 02:42:41 2017.
