 Gaussian 09, Revision D.01,
 Gaussian 09:  EM64L-G09RevD.01 24-Apr-2013

 ----------------------------
 #P CCSD(T)/cc-pVDZ SP Nosymm
 ----------------------------

 ------
 PEscan
 ------
 Symbolic Z-matrix:
 Charge =  0 Multiplicity = 1

                          Input orientation:
 ---------------------------------------------------------------------
 Center     Atomic      Atomic             Coordinates (Angstroms)
 Number     Number       Type             X           Y           Z
 ---------------------------------------------------------------------
      1          6           0        0.014170   -0.000080    0.058290
      2          6           0        0.185540    0.026730    1.568050
      3          8           0        1.568810   -0.152170    1.812190
      4          8           0        1.788210   -0.134770    3.253420
      5          1           0        1.072300    0.453530    3.555360
      6          1           0        0.346070   -0.969270   -0.344220
      7          1           0       -0.149550    1.003780    1.980720
      8          1           0       -0.400410   -0.776430    2.056140
      9          1           0       -1.045670    0.148050   -0.202540
     10          1           0        0.610430    0.798780   -0.408480
 ---------------------------------------------------------------------

 SCF Done:  E(RHF) =  -228.846778418     A.U. after   14 cycles
 E2 =    -0.6713824577D+00 EUMP2 =    -0.22951816087580D+03
 CCSD(T)
 CCSD(T)= -0.22957879701D+03

 Alpha  occ. eigenvalues --  -20.62013 -20.61983 -11.30068 -11.24089  -1.46936
 Alpha  occ. eigenvalues --   -1.22848  -1.01332  -0.85595  -0.70826  -0.67668
 Alpha  occ. eigenvalues --   -0.63039  -0.59366  -0.55675  -0.53018  -0.50653
 Alpha  occ. eigenvalues --   -0.50514  -0.43451
 Alpha virt. eigenvalues --    0.17368   0.18381   0.23285   0.23598   0.26196
 Alpha virt. eigenvalues --    0.27891   0.28245   0.36947   0.38799   0.58626
 Alpha virt. eigenvalues --    0.61852   0.66993   0.73432   0.75358   0.79025

 Mulliken charges:
               1
     1  C   -0.069216
     2  C    0.140914
     3  O   -0.290215
     4  O   -0.178473
     5  H    0.185365
     6  H    0.057608
     7  H    0.019216
     8  H    0.040061
     9  H    0.039692
    10  H    0.055046
 Sum of Mulliken charges =   0.00000

 Dipole moment (field-independent basis, Debye):
    X=             -3.0279    Y=              1.1560    Z=             -0.2233  Tot=              3.2488
 Quadrupole moment (field-independent basis, Debye-Ang):
   XX=            -32.2465   YY=            -24.6925   ZZ=            -23.9672
   XY=              1.4368   XZ=             -7.2458   YZ=              4.0215

 CCSD(T)/cc-pVDZ SP Nosymm\\PEscan\\0,1\C,0,0.01417,-0.00008,0.05829\C,
 \MP4DQ=-229.5531731\MP4SDQ=-229.5586326\CCSD=-229.558947\CCSD(T)=-229.
 Normal termination of Gaussian 09 at Thu Dec 21 02:39:49 2017.
