 Gaussian 09, Revision D.01,
 Gaussian 09:  EM64L-G09RevD.01 24-Apr-2013

 ------------------------
 #P MP2/cc-pVQZ SP Nosymm
 ------------------------

 ------
 PEscan
 ------
 Symbolic Z-matrix:
 Charge =  0 Multiplicity = 1

                          Input orientation:
 ---------------------------------------------------------------------
 Center     Atomic      Atomic             Coordinates (Angstroms)
 Number     Number       Type             X           Y           Z
 ---------------------------------------------------------------------
      1          6           0        0.012830   -0.003250    0.058840
      2          6           0        0.193230    0.043180    1.567140
      3          8           0        1.576350   -0.140310    1.804930
      4          8           0        1.815540   -0.094610    3.245040
      5          1           0        1.020740    0.365830    3.568740
      6          1           0        0.341030   -0.978140   -0.332700
      7          1           0       -0.134910    1.026440    1.969150
      8          1           0       -0.394450   -0.752950    2.066410
      9          1           0       -1.048280    0.143280   -0.197560
     10          1           0        0.607820    0.788660   -0.421050
 ---------------------------------------------------------------------

 SCF Done:  E(RHF) =  -228.934880509     A.U. after   13 cycles
 E2 =    -0.9030686331D+00 EUMP2 =    -0.22983794914230D+03

 Alpha  occ. eigenvalues --  -20.62100 -20.61991 -11.29772 -11.23418  -1.46815
 Alpha  occ. eigenvalues --   -1.22963  -1.01380  -0.85786  -0.70883  -0.68248
 Alpha  occ. eigenvalues --   -0.63562  -0.59155  -0.56354  -0.53465  -0.51165
 Alpha  occ. eigenvalues --   -0.50870  -0.43776
 Alpha virt. eigenvalues --    0.10552   0.12435   0.15953   0.16951   0.18515
 Alpha virt. eigenvalues --    0.20453   0.22351   0.25528   0.26397   0.29742
 Alpha virt. eigenvalues --    0.33745   0.34745   0.36454   0.44699   0.45363

 Mulliken charges:
               1
     1  C   -0.207805
     2  C    0.150589
     3  O   -0.209395
     4  O   -0.287550
     5  H    0.255345
     6  H    0.090571
     7  H    0.010022
     8  H    0.042353
     9  H    0.067254
    10  H    0.088616
 Sum of Mulliken charges =   0.00000

 Dipole moment (field-independent basis, Debye):
    X=             -3.1019    Y=              0.9191    Z=             -0.2918  Tot=              3.2484
 Quadrupole moment (field-independent basis, Debye-Ang):
   XX=            -32.5377   YY=            -24.9484   ZZ=            -24.3043
   XY=              1.0504   XZ=             -7.6635   YZ=              3.1599

 Normal termination of Gaussian 09 at Thu Dec 21 00:22:39 2017.
