 Gaussian 09, Revision D.01,
 Gaussian 09:  EM64L-G09RevD.01 24-Apr-2013

 ----------------------------
 #P CCSD(T)/cc-pVDZ SP Nosymm
 ----------------------------

 ------
 PEscan
 ------
 Symbolic Z-matrix:
 Charge =  0 Multiplicity = 1

                          Input orientation:
 ---------------------------------------------------------------------
 Center     Atomic      Atomic             Coordinates (Angstroms)
 Number     Number       Type             X           Y           Z
 ---------------------------------------------------------------------
      1          6           0        0.023890   -0.030150    0.026520
      2          6           0        0.038910    0.209020    1.527500
      3          8           0        1.343330   -0.133250    1.964040
      4          8           0        1.327020    0.162310    3.401510
      5          1           0        2.085430   -0.391130    3.649360
      6          1           0        0.244750   -1.085170   -0.199610
      7          1           0       -0.169770    1.268240    1.767320
      8          1           0       -0.709930   -0.418120    2.046310
      9          1           0       -0.969480    0.215660   -0.381340
     10          1           0        0.775730    0.600740   -0.472690
 ---------------------------------------------------------------------

 SCF Done:  E(RHF) =  -228.854609273     A.U. after   14 cycles
 E2 =    -0.6703662527D+00 EUMP2 =    -0.22952497552530D+03
 CCSD(T)
 CCSD(T)= -0.22958547495D+03

 Alpha  occ. eigenvalues --  -20.61680 -20.61638 -11.28489 -11.23193  -1.46228
 Alpha  occ. eigenvalues --   -1.22652  -1.00111  -0.83742  -0.69788  -0.66678
 Alpha  occ. eigenvalues --   -0.65040  -0.57885  -0.54018  -0.53103  -0.49963
 Alpha  occ. eigenvalues --   -0.49470  -0.42845
 Alpha virt. eigenvalues --    0.18474   0.19702   0.23698   0.24561   0.25671
 Alpha virt. eigenvalues --    0.28089   0.29131   0.36463   0.40035   0.59597
 Alpha virt. eigenvalues --    0.61907   0.67767   0.75147   0.76279   0.82554

 Mulliken charges:
               1
     1  C   -0.087236
     2  C    0.205417
     3  O   -0.324575
     4  O   -0.192254
     5  H    0.197094
     6  H    0.047143
     7  H    0.035407
     8  H    0.030828
     9  H    0.038531
    10  H    0.049645
 Sum of Mulliken charges =   0.00000

 Dipole moment (field-independent basis, Debye):
    X=             -0.3271    Y=             -0.5758    Z=             -0.2924  Tot=              0.7239
 Quadrupole moment (field-independent basis, Debye-Ang):
   XX=            -22.9162   YY=            -24.7894   ZZ=            -24.7098
   XY=             -1.8104   XZ=              2.3676   YZ=             -3.1163

 CCSD(T)/cc-pVDZ SP Nosymm\\PEscan\\0,1\C,0,0.02389,-0.03015,0.02652\C,
 87\MP4DQ=-229.5601403\MP4SDQ=-229.56548\CCSD=-229.5658907\CCSD(T)=-229
 Normal termination of Gaussian 09 at Thu Dec 21 02:58:24 2017.
