 Gaussian 09, Revision D.01,
 Gaussian 09:  EM64L-G09RevD.01 24-Apr-2013

 ------------------------
 #P MP2/cc-pVQZ SP Nosymm
 ------------------------

 ------
 PEscan
 ------
 Symbolic Z-matrix:
 Charge =  0 Multiplicity = 1

                          Input orientation:
 ---------------------------------------------------------------------
 Center     Atomic      Atomic             Coordinates (Angstroms)
 Number     Number       Type             X           Y           Z
 ---------------------------------------------------------------------
      1          6           0        0.010230   -0.016560    0.059740
      2          6           0        0.206470    0.113440    1.561220
      3          8           0        1.589560   -0.072700    1.795190
      4          8           0        1.847980    0.030590    3.230910
      5          1           0        0.948950    0.035860    3.603920
      6          1           0        0.337960   -1.009990   -0.282370
      7          1           0       -0.114830    1.112850    1.919460
      8          1           0       -0.380140   -0.660110    2.101480
      9          1           0       -1.053800    0.114280   -0.192990
     10          1           0        0.597510    0.750480   -0.467620
 ---------------------------------------------------------------------

 SCF Done:  E(RHF) =  -228.934054315     A.U. after   12 cycles
 E2 =    -0.9031190183D+00 EUMP2 =    -0.22983717333319D+03

 Alpha  occ. eigenvalues --  -20.62088 -20.61973 -11.29820 -11.23447  -1.46719
 Alpha  occ. eigenvalues --   -1.23016  -1.01413  -0.85853  -0.70650  -0.68446
 Alpha  occ. eigenvalues --   -0.63619  -0.58670  -0.56730  -0.53554  -0.51287
 Alpha  occ. eigenvalues --   -0.50857  -0.43656
 Alpha virt. eigenvalues --    0.10571   0.12429   0.15948   0.16891   0.18402
 Alpha virt. eigenvalues --    0.20436   0.22270   0.25422   0.26323   0.29737
 Alpha virt. eigenvalues --    0.33586   0.34867   0.36591   0.44735   0.45419

 Mulliken charges:
               1
     1  C   -0.207417
     2  C    0.144927
     3  O   -0.209407
     4  O   -0.285481
     5  H    0.253697
     6  H    0.089647
     7  H    0.036558
     8  H    0.019420
     9  H    0.067479
    10  H    0.090579
 Sum of Mulliken charges =   0.00000

 Dipole moment (field-independent basis, Debye):
    X=             -3.2712    Y=              0.2207    Z=             -0.2206  Tot=              3.2860
 Quadrupole moment (field-independent basis, Debye-Ang):
   XX=            -32.9200   YY=            -25.2693   ZZ=            -23.6974
   XY=              0.2091   XZ=             -8.2334   YZ=              0.3616

 Normal termination of Gaussian 09 at Thu Dec 21 00:40:53 2017.
