 Gaussian 09, Revision D.01,
 Gaussian 09:  EM64L-G09RevD.01 24-Apr-2013

 ----------------------------
 #P CCSD(T)/cc-pVDZ SP Nosymm
 ----------------------------

 ------
 PEscan
 ------
 Symbolic Z-matrix:
 Charge =  0 Multiplicity = 1

                          Input orientation:
 ---------------------------------------------------------------------
 Center     Atomic      Atomic             Coordinates (Angstroms)
 Number     Number       Type             X           Y           Z
 ---------------------------------------------------------------------
      1          6           0        0.018670   -0.037030    0.039190
      2          6           0        0.094620    0.225120    1.534760
      3          8           0        1.446490   -0.017260    1.902930
      4          8           0        1.540050    0.306150    3.320380
      5          1           0        1.658810   -0.593180    3.670490
      6          1           0        0.303950   -1.076310   -0.187840
      7          1           0       -0.179070    1.268230    1.775530
      8          1           0       -0.581640   -0.448030    2.096630
      9          1           0       -1.009300    0.131500   -0.319400
     10          1           0        0.697310    0.638960   -0.503750
 ---------------------------------------------------------------------

 SCF Done:  E(RHF) =  -228.855115186     A.U. after   14 cycles
 E2 =    -0.6703571377D+00 EUMP2 =    -0.22952547232361D+03
 CCSD(T)
 CCSD(T)= -0.22958608063D+03

 Alpha  occ. eigenvalues --  -20.61854 -20.61745 -11.28781 -11.23348  -1.46672
 Alpha  occ. eigenvalues --   -1.22526  -1.00355  -0.83937  -0.71386  -0.65798
 Alpha  occ. eigenvalues --   -0.63876  -0.60282  -0.53944  -0.52340  -0.50044
 Alpha  occ. eigenvalues --   -0.48339  -0.44377
 Alpha virt. eigenvalues --    0.18333   0.18976   0.23573   0.24351   0.26040
 Alpha virt. eigenvalues --    0.28316   0.28877   0.36372   0.40010   0.59330
 Alpha virt. eigenvalues --    0.61551   0.67993   0.74405   0.76338   0.82033

 Mulliken charges:
               1
     1  C   -0.088308
     2  C    0.198578
     3  O   -0.314464
     4  O   -0.193849
     5  H    0.201188
     6  H    0.046464
     7  H    0.039026
     8  H    0.019939
     9  H    0.038509
    10  H    0.052916
 Sum of Mulliken charges =   0.00000

 Dipole moment (field-independent basis, Debye):
    X=             -1.5395    Y=             -1.2795    Z=             -0.0494  Tot=              2.0024
 Quadrupole moment (field-independent basis, Debye-Ang):
   XX=            -27.8194   YY=            -24.1572   ZZ=            -23.1311
   XY=             -2.6253   XZ=             -1.7375   YZ=             -5.6785

 CCSD(T)/cc-pVDZ SP Nosymm\\PEscan\\0,1\C,0,0.01867,-0.03703,0.03919\C,
 Q=-229.5607448\MP4SDQ=-229.5661061\CCSD=-229.5664999\CCSD(T)=-229.5860
 Normal termination of Gaussian 09 at Thu Dec 21 02:53:22 2017.
