 Gaussian 09, Revision D.01,
 Gaussian 09:  EM64L-G09RevD.01 24-Apr-2013

 ----------------------------
 #P CCSD(T)/cc-pVDZ SP Nosymm
 ----------------------------

 ------
 PEscan
 ------
 Symbolic Z-matrix:
 Charge =  0 Multiplicity = 1

                          Input orientation:
 ---------------------------------------------------------------------
 Center     Atomic      Atomic             Coordinates (Angstroms)
 Number     Number       Type             X           Y           Z
 ---------------------------------------------------------------------
      1          6           0        0.027340   -0.004230    0.024410
      2          6           0        0.010370    0.017160    1.544150
      3          8           0        1.368630    0.035110    1.949230
      4          8           0        1.303750    0.001810    3.415040
      5          1           0        2.195920    0.345280    3.585360
      6          1           0        0.551500   -0.900020   -0.343460
      7          1           0       -0.511500    0.911830    1.932030
      8          1           0       -0.489860   -0.880530    1.952700
      9          1           0       -1.004630   -0.016530   -0.360890
     10          1           0        0.538370    0.888260   -0.369650
 ---------------------------------------------------------------------

 SCF Done:  E(RHF) =  -228.854608485     A.U. after   14 cycles
 E2 =    -0.6703670340D+00 EUMP2 =    -0.22952497551860D+03
 CCSD(T)
 CCSD(T)= -0.22958547493D+03

 Alpha  occ. eigenvalues --  -20.61680 -20.61638 -11.28489 -11.23193  -1.46228
 Alpha  occ. eigenvalues --   -1.22651  -1.00111  -0.83742  -0.69787  -0.66678
 Alpha  occ. eigenvalues --   -0.65039  -0.57885  -0.54018  -0.53103  -0.49963
 Alpha  occ. eigenvalues --   -0.49470  -0.42845
 Alpha virt. eigenvalues --    0.18475   0.19702   0.23698   0.24561   0.25671
 Alpha virt. eigenvalues --    0.28089   0.29131   0.36463   0.40035   0.59597
 Alpha virt. eigenvalues --    0.61907   0.67767   0.75147   0.76279   0.82553

 Mulliken charges:
               1
     1  C   -0.087240
     2  C    0.205422
     3  O   -0.324583
     4  O   -0.192267
     5  H    0.197105
     6  H    0.049645
     7  H    0.030832
     8  H    0.035411
     9  H    0.038531
    10  H    0.047144
 Sum of Mulliken charges =   0.00000

 Dipole moment (field-independent basis, Debye):
    X=             -0.1537    Y=              0.5884    Z=             -0.3926  Tot=              0.7238
 Quadrupole moment (field-independent basis, Debye-Ang):
   XX=            -21.9099   YY=            -24.9002   ZZ=            -25.6414
   XY=              1.5509   XZ=              2.8806   YZ=              2.2844

 CCSD(T)/cc-pVDZ SP Nosymm\\PEscan\\0,1\C,0,0.02734,-0.00423,0.02441\C,
 P4DQ=-229.5601402\MP4SDQ=-229.5654799\CCSD=-229.5658906\CCSD(T)=-229.5
 Normal termination of Gaussian 09 at Thu Dec 21 02:27:02 2017.
