 Gaussian 09, Revision D.01,
 Gaussian 09:  EM64L-G09RevD.01 24-Apr-2013

 ------------------------
 #P MP2/cc-pVQZ SP Nosymm
 ------------------------

 ------
 PEscan
 ------
 Symbolic Z-matrix:
 Charge =  0 Multiplicity = 1

                          Input orientation:
 ---------------------------------------------------------------------
 Center     Atomic      Atomic             Coordinates (Angstroms)
 Number     Number       Type             X           Y           Z
 ---------------------------------------------------------------------
      1          6           0        0.026890   -0.002050    0.025650
      2          6           0        0.016190    0.010350    1.545620
      3          8           0        1.377060    0.002960    1.944760
      4          8           0        1.325520   -0.053530    3.409110
      5          1           0        2.151750    0.426480    3.582650
      6          1           0        0.534640   -0.904270   -0.349340
      7          1           0       -0.490080    0.910530    1.941520
      8          1           0       -0.496960   -0.881780    1.950000
      9          1           0       -1.006580    0.005450   -0.355770
     10          1           0        0.551460    0.883990   -0.365290
 ---------------------------------------------------------------------

 SCF Done:  E(RHF) =  -228.942953091     A.U. after   13 cycles
 E2 =    -0.9025443197D+00 EUMP2 =    -0.22984549741037D+03

 Alpha  occ. eigenvalues --  -20.61832 -20.61774 -11.28185 -11.22526  -1.46407
 Alpha  occ. eigenvalues --   -1.22790  -1.00168  -0.83897  -0.70641  -0.66674
 Alpha  occ. eigenvalues --   -0.65453  -0.58741  -0.54203  -0.53248  -0.50288
 Alpha  occ. eigenvalues --   -0.49902  -0.43608
 Alpha virt. eigenvalues --    0.11568   0.13140   0.15904   0.17229   0.18705
 Alpha virt. eigenvalues --    0.21084   0.22734   0.27031   0.27047   0.30787
 Alpha virt. eigenvalues --    0.31039   0.35907   0.37207   0.45869   0.46571

 Mulliken charges:
               1
     1  C   -0.214668
     2  C    0.176838
     3  O   -0.245547
     4  O   -0.303085
     5  H    0.275498
     6  H    0.082665
     7  H    0.038797
     8  H    0.044924
     9  H    0.066555
    10  H    0.078025
 Sum of Mulliken charges =   0.00000

 Dipole moment (field-independent basis, Debye):
    X=             -0.2874    Y=              0.8291    Z=             -0.4490  Tot=              0.9857
 Quadrupole moment (field-independent basis, Debye-Ang):
   XX=            -22.7401   YY=            -24.8373   ZZ=            -26.0838
   XY=              2.0933   XZ=              2.2931   YZ=              3.1673

 Normal termination of Gaussian 09 at Wed Dec 20 23:02:28 2017.
