 Gaussian 09, Revision D.01,
 Gaussian 09:  EM64L-G09RevD.01 24-Apr-2013

 ----------------------------
 #P CCSD(T)/cc-pVDZ SP Nosymm
 ----------------------------

 ------
 PEscan
 ------
 Symbolic Z-matrix:
 Charge =  0 Multiplicity = 1

                          Input orientation:
 ---------------------------------------------------------------------
 Center     Atomic      Atomic             Coordinates (Angstroms)
 Number     Number       Type             X           Y           Z
 ---------------------------------------------------------------------
      1          6           0        0.013750   -0.033570    0.051800
      2          6           0        0.159960    0.200230    1.546490
      3          8           0        1.533670   -0.008790    1.844180
      4          8           0        1.716250    0.278760    3.254140
      5          1           0        1.245280   -0.477150    3.650470
      6          1           0        0.328440   -1.055200   -0.212210
      7          1           0       -0.137480    1.225690    1.831230
      8          1           0       -0.468310   -0.513670    2.120140
      9          1           0       -1.037560    0.100700   -0.248680
     10          1           0        0.635890    0.681140   -0.508630
 ---------------------------------------------------------------------

 SCF Done:  E(RHF) =  -228.852866037     A.U. after   14 cycles
 E2 =    -0.6707261523D+00 EUMP2 =    -0.22952359218963D+03
 CCSD(T)
 CCSD(T)= -0.22958420907D+03

 Alpha  occ. eigenvalues --  -20.62045 -20.61925 -11.29357 -11.23689  -1.47124
 Alpha  occ. eigenvalues --   -1.22563  -1.00825  -0.84673  -0.71690  -0.66611
 Alpha  occ. eigenvalues --   -0.62295  -0.61419  -0.54539  -0.52432  -0.50403
 Alpha  occ. eigenvalues --   -0.48645  -0.44671
 Alpha virt. eigenvalues --    0.17480   0.18732   0.23522   0.24130   0.26368
 Alpha virt. eigenvalues --    0.28385   0.28548   0.36653   0.39576   0.58915
 Alpha virt. eigenvalues --    0.61099   0.67647   0.74656   0.76000   0.82413

 Mulliken charges:
               1
     1  C   -0.082819
     2  C    0.174266
     3  O   -0.299448
     4  O   -0.185283
     5  H    0.194081
     6  H    0.049873
     7  H    0.041603
     8  H    0.013164
     9  H    0.038971
    10  H    0.055592
 Sum of Mulliken charges =   0.00000

 Dipole moment (field-independent basis, Debye):
    X=             -2.5739    Y=             -1.0080    Z=              0.0050  Tot=              2.7642
 Quadrupole moment (field-independent basis, Debye-Ang):
   XX=            -31.1777   YY=            -24.5117   ZZ=            -22.5999
   XY=             -1.6013   XZ=             -5.4697   YZ=             -4.5424

 CCSD(T)/cc-pVDZ SP Nosymm\\PEscan\\0,1\C,0,0.01375,-0.03357,0.0518\C,0
 MP4DQ=-229.5588038\MP4SDQ=-229.5642065\CCSD=-229.5645593\CCSD(T)=-229.
 Normal termination of Gaussian 09 at Thu Dec 21 02:49:19 2017.
