 Gaussian 09, Revision D.01,
 Gaussian 09:  EM64L-G09RevD.01 24-Apr-2013

 ------------------------
 #P MP2/cc-pVQZ SP Nosymm
 ------------------------

 ------
 PEscan
 ------
 Symbolic Z-matrix:
 Charge =  0 Multiplicity = 1

                          Input orientation:
 ---------------------------------------------------------------------
 Center     Atomic      Atomic             Coordinates (Angstroms)
 Number     Number       Type             X           Y           Z
 ---------------------------------------------------------------------
      1          6           0        0.018670   -0.037030    0.039190
      2          6           0        0.094620    0.225120    1.534760
      3          8           0        1.446490   -0.017260    1.902930
      4          8           0        1.540050    0.306150    3.320380
      5          1           0        1.658810   -0.593180    3.670490
      6          1           0        0.303950   -1.076310   -0.187840
      7          1           0       -0.179070    1.268230    1.775530
      8          1           0       -0.581640   -0.448030    2.096630
      9          1           0       -1.009300    0.131500   -0.319400
     10          1           0        0.697310    0.638960   -0.503750
 ---------------------------------------------------------------------

 SCF Done:  E(RHF) =  -228.943729356     A.U. after   13 cycles
 E2 =    -0.9021287524D+00 EUMP2 =    -0.22984585810849D+03

 Alpha  occ. eigenvalues --  -20.61923 -20.61891 -11.28420 -11.22655  -1.46761
 Alpha  occ. eigenvalues --   -1.22637  -1.00373  -0.84054  -0.71871  -0.66150
 Alpha  occ. eigenvalues --   -0.64282  -0.60672  -0.54181  -0.52615  -0.50403
 Alpha  occ. eigenvalues --   -0.48896  -0.44882
 Alpha virt. eigenvalues --    0.11187   0.12960   0.15933   0.17158   0.18775
 Alpha virt. eigenvalues --    0.20914   0.22920   0.26875   0.27285   0.30431
 Alpha virt. eigenvalues --    0.31198   0.35882   0.37223   0.45268   0.46191

 Mulliken charges:
               1
     1  C   -0.213949
     2  C    0.175913
     3  O   -0.237745
     4  O   -0.307793
     5  H    0.280988
     6  H    0.077339
     7  H    0.050639
     8  H    0.023057
     9  H    0.065896
    10  H    0.085653
 Sum of Mulliken charges =   0.00000

 Dipole moment (field-independent basis, Debye):
    X=             -1.5077    Y=             -1.2389    Z=             -0.1339  Tot=              1.9560
 Quadrupole moment (field-independent basis, Debye-Ang):
   XX=            -27.9682   YY=            -24.2269   ZZ=            -23.7058
   XY=             -2.5267   XZ=             -1.7822   YZ=             -5.5779

 Normal termination of Gaussian 09 at Thu Dec 21 01:41:44 2017.
