 Gaussian 09, Revision D.01,
 Gaussian 09:  EM64L-G09RevD.01 24-Apr-2013

 ----------------------------
 #P CCSD(T)/cc-pVDZ SP Nosymm
 ----------------------------

 ------
 PEscan
 ------
 Symbolic Z-matrix:
 Charge =  0 Multiplicity = 1

                          Input orientation:
 ---------------------------------------------------------------------
 Center     Atomic      Atomic             Coordinates (Angstroms)
 Number     Number       Type             X           Y           Z
 ---------------------------------------------------------------------
      1          6           0        0.025470    0.004360    0.032570
      2          6           0        0.045420   -0.009150    1.552650
      3          8           0        1.415360   -0.090130    1.921840
      4          8           0        1.423310   -0.179830    3.378690
      5          1           0        1.939780    0.621670    3.567000
      6          1           0        0.482520   -0.914690   -0.365910
      7          1           0       -0.409440    0.908820    1.971530
      8          1           0       -0.503500   -0.880420    1.953890
      9          1           0       -1.013620    0.067130   -0.328040
     10          1           0        0.584600    0.870390   -0.355310
 ---------------------------------------------------------------------

 SCF Done:  E(RHF) =  -228.855109363     A.U. after   14 cycles
 E2 =    -0.6703632030D+00 EUMP2 =    -0.22952547256611D+03
 CCSD(T)
 CCSD(T)= -0.22958606620D+03

 Alpha  occ. eigenvalues --  -20.61802 -20.61710 -11.28693 -11.23294  -1.46542
 Alpha  occ. eigenvalues --   -1.22549  -1.00276  -0.83846  -0.71136  -0.65701
 Alpha  occ. eigenvalues --   -0.64347  -0.59801  -0.53868  -0.52421  -0.49975
 Alpha  occ. eigenvalues --   -0.48675  -0.43988
 Alpha virt. eigenvalues --    0.18477   0.19082   0.23596   0.24393   0.25950
 Alpha virt. eigenvalues --    0.28256   0.28946   0.36369   0.40048   0.59409
 Alpha virt. eigenvalues --    0.61705   0.68012   0.74250   0.76380   0.82387

 Mulliken charges:
               1
     1  C   -0.088617
     2  C    0.201606
     3  O   -0.317467
     4  O   -0.194712
     5  H    0.201464
     6  H    0.052258
     7  H    0.022482
     8  H    0.038295
     9  H    0.038468
    10  H    0.046225
 Sum of Mulliken charges =   0.00000

 Dipole moment (field-independent basis, Debye):
    X=             -0.8599    Y=              1.5090    Z=             -0.3233  Tot=              1.7667
 Quadrupole moment (field-independent basis, Debye-Ang):
   XX=            -25.0348   YY=            -24.1463   ZZ=            -25.2892
   XY=              3.2151   XZ=              0.3561   YZ=              5.5386

 CCSD(T)/cc-pVDZ SP Nosymm\\PEscan\\0,1\C,0,0.02547,0.00436,0.03257\C,0
 MP4DQ=-229.5607258\MP4SDQ=-229.5660826\CCSD=-229.5664823\CCSD(T)=-229.
 Normal termination of Gaussian 09 at Thu Dec 21 02:31:06 2017.
