 Gaussian 09, Revision D.01,
 Gaussian 09:  EM64L-G09RevD.01 24-Apr-2013

 ------------------------
 #P MP2/cc-pVQZ SP Nosymm
 ------------------------

 ------
 PEscan
 ------
 Symbolic Z-matrix:
 Charge =  0 Multiplicity = 1

                          Input orientation:
 ---------------------------------------------------------------------
 Center     Atomic      Atomic             Coordinates (Angstroms)
 Number     Number       Type             X           Y           Z
 ---------------------------------------------------------------------
      1          6           0        0.015500    0.002270    0.056900
      2          6           0        0.175420    0.014610    1.568070
      3          8           0        1.558920   -0.158120    1.821060
      4          8           0        1.755390   -0.172450    3.262850
      5          1           0        1.138380    0.526880    3.547620
      6          1           0        0.353930   -0.961570   -0.353080
      7          1           0       -0.168930    0.985260    1.988470
      8          1           0       -0.407640   -0.795680    2.045920
      9          1           0       -1.042910    0.149120   -0.210520
     10          1           0        0.611840    0.807830   -0.398360
 ---------------------------------------------------------------------

 SCF Done:  E(RHF) =  -228.937623968     A.U. after   13 cycles
 E2 =    -0.9027881220D+00 EUMP2 =    -0.22984041209003D+03

 Alpha  occ. eigenvalues --  -20.62122 -20.62044 -11.29542 -11.23288  -1.47056
 Alpha  occ. eigenvalues --   -1.22808  -1.01223  -0.85484  -0.71475  -0.67731
 Alpha  occ. eigenvalues --   -0.63318  -0.60273  -0.55600  -0.53155  -0.50893
 Alpha  occ. eigenvalues --   -0.50581  -0.44227
 Alpha virt. eigenvalues --    0.10529   0.12471   0.16029   0.17030   0.18773
 Alpha virt. eigenvalues --    0.20537   0.22555   0.25871   0.26656   0.29829
 Alpha virt. eigenvalues --    0.34034   0.34311   0.36246   0.44358   0.45226

 Mulliken charges:
               1
     1  C   -0.209055
     2  C    0.163020
     3  O   -0.211617
     4  O   -0.291898
     5  H    0.260366
     6  H    0.089928
     7  H   -0.004016
     8  H    0.050705
     9  H    0.066864
    10  H    0.085703
 Sum of Mulliken charges =   0.00000

 Dipole moment (field-independent basis, Debye):
    X=             -2.7998    Y=              1.2801    Z=             -0.3251  Tot=              3.0957
 Quadrupole moment (field-independent basis, Debye-Ang):
   XX=            -31.8292   YY=            -24.5635   ZZ=            -24.7328
   XY=              1.6465   XZ=             -6.6246   YZ=              4.5806

 Normal termination of Gaussian 09 at Thu Dec 21 00:10:14 2017.
