 Gaussian 09, Revision D.01,
 Gaussian 09:  EM64L-G09RevD.01 24-Apr-2013

 ----------------------------
 #P CCSD(T)/cc-pVDZ SP Nosymm
 ----------------------------

 ------
 PEscan
 ------
 Symbolic Z-matrix:
 Charge =  0 Multiplicity = 1

                          Input orientation:
 ---------------------------------------------------------------------
 Center     Atomic      Atomic             Coordinates (Angstroms)
 Number     Number       Type             X           Y           Z
 ---------------------------------------------------------------------
      1          6           0        0.026020    0.002410    0.029820
      2          6           0        0.033690   -0.003530    1.550010
      3          8           0        1.400530   -0.061460    1.931050
      4          8           0        1.386180   -0.144220    3.390890
      5          1           0        2.022550    0.567040    3.572860
      6          1           0        0.500060   -0.911300   -0.361040
      7          1           0       -0.438470    0.908360    1.961980
      8          1           0       -0.504510   -0.882270    1.950120
      9          1           0       -1.010990    0.047820   -0.339280
     10          1           0        0.574840    0.875280   -0.357500
 ---------------------------------------------------------------------

 SCF Done:  E(RHF) =  -228.855004404     A.U. after   14 cycles
 E2 =    -0.6703772466D+00 EUMP2 =    -0.22952538165085D+03
 CCSD(T)
 CCSD(T)= -0.22958595435D+03

 Alpha  occ. eigenvalues --  -20.61758 -20.61682 -11.28621 -11.23253  -1.46428
 Alpha  occ. eigenvalues --   -1.22578  -1.00214  -0.83789  -0.70838  -0.65708
 Alpha  occ. eigenvalues --   -0.64738  -0.59307  -0.53824  -0.52553  -0.49931
 Alpha  occ. eigenvalues --   -0.48996  -0.43615
 Alpha virt. eigenvalues --    0.18531   0.19244   0.23624   0.24437   0.25865
 Alpha virt. eigenvalues --    0.28197   0.29009   0.36385   0.40066   0.59474
 Alpha virt. eigenvalues --    0.61821   0.67987   0.74267   0.76397   0.82735

 Mulliken charges:
               1
     1  C   -0.088599
     2  C    0.203592
     3  O   -0.319955
     4  O   -0.194834
     5  H    0.201014
     6  H    0.051607
     7  H    0.024938
     8  H    0.037580
     9  H    0.038453
    10  H    0.046204
 Sum of Mulliken charges =   0.00000

 Dipole moment (field-independent basis, Debye):
    X=             -0.6378    Y=              1.3307    Z=             -0.3433  Tot=              1.5150
 Quadrupole moment (field-independent basis, Debye-Ang):
   XX=            -24.0818   YY=            -24.3227   ZZ=            -25.4019
   XY=              2.9657   XZ=              1.1489   YZ=              4.9176

 CCSD(T)/cc-pVDZ SP Nosymm\\PEscan\\0,1\C,0,0.02602,0.00241,0.02982\C,0
 6\MP4DQ=-229.5606103\MP4SDQ=-229.5659629\CCSD=-229.5663668\CCSD(T)=-22
 Normal termination of Gaussian 09 at Thu Dec 21 02:30:04 2017.
