 Gaussian 09, Revision D.01,
 Gaussian 09:  EM64L-G09RevD.01 24-Apr-2013

 ----------------------------
 #P CCSD(T)/cc-pVDZ SP Nosymm
 ----------------------------

 ------
 PEscan
 ------
 Symbolic Z-matrix:
 Charge =  0 Multiplicity = 1

                          Input orientation:
 ---------------------------------------------------------------------
 Center     Atomic      Atomic             Coordinates (Angstroms)
 Number     Number       Type             X           Y           Z
 ---------------------------------------------------------------------
      1          6           0        0.014910   -0.035180    0.048710
      2          6           0        0.143450    0.209400    1.543430
      3          8           0        1.513520   -0.004650    1.858290
      4          8           0        1.676770    0.298590    3.267720
      5          1           0        1.343690   -0.528870    3.659470
      6          1           0        0.323840   -1.061560   -0.203800
      7          1           0       -0.149750    1.239370    1.815040
      8          1           0       -0.495620   -0.494110    2.116190
      9          1           0       -1.031240    0.105610   -0.266540
     10          1           0        0.650320    0.669540   -0.509580
 ---------------------------------------------------------------------

 SCF Done:  E(RHF) =  -228.853867372     A.U. after   13 cycles
 E2 =    -0.6705565049D+00 EUMP2 =    -0.22952442387721D+03
 CCSD(T)
 CCSD(T)= -0.22958504201D+03

 Alpha  occ. eigenvalues --  -20.62011 -20.61880 -11.29179 -11.23585  -1.47049
 Alpha  occ. eigenvalues --   -1.22527  -1.00687  -0.84437  -0.71735  -0.66367
 Alpha  occ. eigenvalues --   -0.62429  -0.61465  -0.54345  -0.52352  -0.50317
 Alpha  occ. eigenvalues --   -0.48215  -0.44886
 Alpha virt. eigenvalues --    0.17658   0.18808   0.23540   0.24209   0.26305
 Alpha virt. eigenvalues --    0.28406   0.28638   0.36542   0.39732   0.59024
 Alpha virt. eigenvalues --    0.61122   0.67758   0.74879   0.76104   0.82007

 Mulliken charges:
               1
     1  C   -0.084947
     2  C    0.182047
     3  O   -0.303267
     4  O   -0.187730
     5  H    0.196435
     6  H    0.048691
     7  H    0.041102
     8  H    0.013938
     9  H    0.038804
    10  H    0.054927
 Sum of Mulliken charges =   0.00000

 Dipole moment (field-independent basis, Debye):
    X=             -2.3371    Y=             -1.1390    Z=              0.0130  Tot=              2.5999
 Quadrupole moment (field-independent basis, Debye-Ang):
   XX=            -30.4970   YY=            -24.3614   ZZ=            -22.6146
   XY=             -1.9235   XZ=             -4.5989   YZ=             -5.0715

 CCSD(T)/cc-pVDZ SP Nosymm\\PEscan\\0,1\C,0,0.01491,-0.03518,0.04871\C,
 6\MP4DQ=-229.5596754\MP4SDQ=-229.5650627\CCSD=-229.565428\CCSD(T)=-229
 Normal termination of Gaussian 09 at Thu Dec 21 02:50:16 2017.
