 Gaussian 09, Revision D.01,
 Gaussian 09:  EM64L-G09RevD.01 24-Apr-2013

 ----------------------------
 #P CCSD(T)/cc-pVDZ SP Nosymm
 ----------------------------

 ------
 PEscan
 ------
 Symbolic Z-matrix:
 Charge =  0 Multiplicity = 1

                          Input orientation:
 ---------------------------------------------------------------------
 Center     Atomic      Atomic             Coordinates (Angstroms)
 Number     Number       Type             X           Y           Z
 ---------------------------------------------------------------------
      1          6           0        0.024860   -0.028430    0.025520
      2          6           0        0.033540    0.204150    1.527530
      3          8           0        1.329000   -0.159870    1.971580
      4          8           0        1.295180    0.109320    3.414680
      5          1           0        2.137810   -0.318560    3.637530
      6          1           0        0.230170   -1.085920   -0.203470
      7          1           0       -0.161640    1.264990    1.771750
      8          1           0       -0.727420   -0.415240    2.037890
      9          1           0       -0.961590    0.235340   -0.387870
     10          1           0        0.789990    0.592370   -0.466200
 ---------------------------------------------------------------------

 SCF Done:  E(RHF) =  -228.854540921     A.U. after   14 cycles
 E2 =    -0.6703497261D+00 EUMP2 =    -0.22952489064711D+03
 CCSD(T)
 CCSD(T)= -0.22958537467D+03

 Alpha  occ. eigenvalues --  -20.61670 -20.61632 -11.28469 -11.23187  -1.46204
 Alpha  occ. eigenvalues --   -1.22665  -1.00098  -0.83743  -0.69487  -0.67027
 Alpha  occ. eigenvalues --   -0.65036  -0.57555  -0.54180  -0.53198  -0.49976
 Alpha  occ. eigenvalues --   -0.49505  -0.42733
 Alpha virt. eigenvalues --    0.18453   0.19777   0.23710   0.24586   0.25638
 Alpha virt. eigenvalues --    0.28081   0.29144   0.36479   0.40017   0.59615
 Alpha virt. eigenvalues --    0.61889   0.67710   0.75467   0.76199   0.82242

 Mulliken charges:
               1
     1  C   -0.086807
     2  C    0.205412
     3  O   -0.325247
     4  O   -0.191418
     5  H    0.196035
     6  H    0.047693
     7  H    0.034524
     8  H    0.032263
     9  H    0.038568
    10  H    0.048976
 Sum of Mulliken charges =   0.00000

 Dipole moment (field-independent basis, Debye):
    X=             -0.1616    Y=             -0.3240    Z=             -0.3478  Tot=              0.5020
 Quadrupole moment (field-independent basis, Debye-Ang):
   XX=            -22.1956   YY=            -24.9553   ZZ=            -25.0887
   XY=             -1.3271   XZ=              2.8693   YZ=             -2.1844

 CCSD(T)/cc-pVDZ SP Nosymm\\PEscan\\0,1\C,0,0.02486,-0.02843,0.02552\C,
 \MP4DQ=-229.5600456\MP4SDQ=-229.5653824\CCSD=-229.5657941\CCSD(T)=-229
 Normal termination of Gaussian 09 at Thu Dec 21 02:59:24 2017.
