 Gaussian 09, Revision D.01,
 Gaussian 09:  EM64L-G09RevD.01 24-Apr-2013

 ----------------------------
 #P CCSD(T)/cc-pVDZ SP Nosymm
 ----------------------------

 ------
 PEscan
 ------
 Symbolic Z-matrix:
 Charge =  0 Multiplicity = 1

                          Input orientation:
 ---------------------------------------------------------------------
 Center     Atomic      Atomic             Coordinates (Angstroms)
 Number     Number       Type             X           Y           Z
 ---------------------------------------------------------------------
      1          6           0        0.026890   -0.002050    0.025650
      2          6           0        0.016190    0.010350    1.545620
      3          8           0        1.377060    0.002960    1.944760
      4          8           0        1.325520   -0.053530    3.409110
      5          1           0        2.151750    0.426480    3.582650
      6          1           0        0.534640   -0.904270   -0.349340
      7          1           0       -0.490080    0.910530    1.941520
      8          1           0       -0.496960   -0.881780    1.950000
      9          1           0       -1.006580    0.005450   -0.355770
     10          1           0        0.551460    0.883990   -0.365290
 ---------------------------------------------------------------------

 SCF Done:  E(RHF) =  -228.854719290     A.U. after   14 cycles
 E2 =    -0.6703814688D+00 EUMP2 =    -0.22952510075875D+03
 CCSD(T)
 CCSD(T)= -0.22958562264D+03

 Alpha  occ. eigenvalues --  -20.61698 -20.61647 -11.28521 -11.23204  -1.46272
 Alpha  occ. eigenvalues --   -1.22632  -1.00133  -0.83744  -0.70145  -0.66266
 Alpha  occ. eigenvalues --   -0.65031  -0.58325  -0.53884  -0.52936  -0.49938
 Alpha  occ. eigenvalues --   -0.49394  -0.43032
 Alpha virt. eigenvalues --    0.18503   0.19581   0.23678   0.24524   0.25722
 Alpha virt. eigenvalues --    0.28109   0.29104   0.36439   0.40054   0.59567
 Alpha virt. eigenvalues --    0.61914   0.67846   0.74779   0.76344   0.82893

 Mulliken charges:
               1
     1  C   -0.087793
     2  C    0.205270
     3  O   -0.323482
     4  O   -0.193343
     5  H    0.198534
     6  H    0.050307
     7  H    0.029146
     8  H    0.036176
     9  H    0.038491
    10  H    0.046695
 Sum of Mulliken charges =   0.00000

 Dipole moment (field-independent basis, Debye):
    X=             -0.2799    Y=              0.8640    Z=             -0.3783  Tot=              0.9838
 Quadrupole moment (field-independent basis, Debye-Ang):
   XX=            -22.4871   YY=            -24.7162   ZZ=            -25.5739
   XY=              2.1174   XZ=              2.4311   YZ=              3.2691

 CCSD(T)/cc-pVDZ SP Nosymm\\PEscan\\0,1\C,0,0.02689,-0.00205,0.02565\C,
 MP4DQ=-229.5602819\MP4SDQ=-229.5656257\CCSD=-229.5660348\CCSD(T)=-229.
 Normal termination of Gaussian 09 at Thu Dec 21 02:28:02 2017.
