 Gaussian 09, Revision D.01,
 Gaussian 09:  EM64L-G09RevD.01 24-Apr-2013

 ----------------------------
 #P CCSD(T)/cc-pVDZ SP Nosymm
 ----------------------------

 ------
 PEscan
 ------
 Symbolic Z-matrix:
 Charge =  0 Multiplicity = 1

                          Input orientation:
 ---------------------------------------------------------------------
 Center     Atomic      Atomic             Coordinates (Angstroms)
 Number     Number       Type             X           Y           Z
 ---------------------------------------------------------------------
      1          6           0        0.025620   -0.026680    0.025010
      2          6           0        0.030540    0.199190    1.528050
      3          8           0        1.317910   -0.186460    1.976830
      4          8           0        1.269720    0.049890    3.425510
      5          1           0        2.175000   -0.238890    3.624990
      6          1           0        0.214760   -1.086350   -0.207470
      7          1           0       -0.151430    1.261180    1.777490
      8          1           0       -0.741270   -0.412800    2.030980
      9          1           0       -0.954170    0.255400   -0.392110
     10          1           0        0.803210    0.583660   -0.460350
 ---------------------------------------------------------------------

 SCF Done:  E(RHF) =  -228.854518384     A.U. after   13 cycles
 E2 =    -0.6703421572D+00 EUMP2 =    -0.22952486054114D+03
 CCSD(T)
 CCSD(T)= -0.22958533900D+03

 Alpha  occ. eigenvalues --  -20.61667 -20.61631 -11.28462 -11.23186  -1.46196
 Alpha  occ. eigenvalues --   -1.22669  -1.00094  -0.83744  -0.69359  -0.67173
 Alpha  occ. eigenvalues --   -0.65033  -0.57428  -0.54256  -0.53226  -0.49980
 Alpha  occ. eigenvalues --   -0.49515  -0.42696
 Alpha virt. eigenvalues --    0.18445   0.19802   0.23714   0.24594   0.25627
 Alpha virt. eigenvalues --    0.28080   0.29148   0.36484   0.40010   0.59621
 Alpha virt. eigenvalues --    0.61880   0.67688   0.75608   0.76149   0.82121

 Mulliken charges:
               1
     1  C   -0.086638
     2  C    0.205386
     3  O   -0.325474
     4  O   -0.191100
     5  H    0.195643
     6  H    0.048315
     7  H    0.033486
     8  H    0.033486
     9  H    0.038583
    10  H    0.048315
 Sum of Mulliken charges =   0.00000

 Dipole moment (field-independent basis, Debye):
    X=             -0.0377    Y=             -0.0468    Z=             -0.3963  Tot=              0.4008
 Quadrupole moment (field-independent basis, Debye-Ang):
   XX=            -21.6537   YY=            -25.1042   ZZ=            -25.4329
   XY=             -0.7598   XZ=              3.2216   YZ=             -1.1624

 CCSD(T)/cc-pVDZ SP Nosymm\\PEscan\\0,1\C,0,0.02562,-0.02668,0.02501\C,
 MP4DQ=-229.5600123\MP4SDQ=-229.565348\CCSD=-229.5657601\CCSD(T)=-229.5
 Normal termination of Gaussian 09 at Thu Dec 21 03:00:18 2017.
