 Gaussian 09, Revision C.01,
 Gaussian 09:  EM64L-G09RevC.01 23-Sep-2011

 ----------------------------------------------------------------------
 #P HF/6-31G* SCF(Conver=6) NoSymm Test Pop=mk IOp(6/33=2) GFInput GFPr
 int
 ----------------------------------------------------------------------

 (Enter /scratch/michal/g09/l101.exe)
 ----------------------------------------------
 MEP - Input generated by R.E.D.-III.x MOLECULE
 ----------------------------------------------
 Charge =  0 Multiplicity = 1

                          Input orientation:
 ---------------------------------------------------------------------
 Center     Atomic      Atomic             Coordinates (Angstroms)
 Number     Number       Type             X           Y           Z
 ---------------------------------------------------------------------
      1          8           0        5.745731    3.475513    0.000000
      2          1           0        5.109793    3.312523    0.709367
      3          8           0        0.000000    0.000000    0.000000
      4          1           0       -0.081171   -0.742177   -0.615432
      5          6           0        8.816209    0.413702    0.351667
      6          6           0        7.887111    1.586269   -0.069048
      7          1           0        7.706882    2.160844    0.850641
      8          6           0        6.502531    1.167360   -0.577934
      9          1           0        6.619823    0.587593   -1.505007
     10          6           0        5.776881    0.296766    0.479154
     11          1           0        5.552763    0.971313    1.322295
     12          6           0       10.094833    1.224600    0.760779
     13          1           0        9.843642    1.708469    1.715942
     14          6           0        8.085609   -0.334690    1.485084
     15          1           0        7.986313    0.341861    2.346097
     16          1           0        8.655388   -1.201796    1.834548
     17          6           0        4.389206   -0.229142   -0.030451
     18          6           0        8.764975    2.476280   -0.960850
     19          1           0        8.413078    3.511572   -0.973215
     20          1           0        8.758318    2.121095   -1.999410
     21          6           0        6.688642   -0.818214    1.044185
     22          1           0        6.817423   -1.606926    0.295809
     23          1           0        6.198885   -1.294630    1.901355
     24          6           0       10.181223    2.337469   -0.335803
     25          1           0       10.917916    2.061664   -1.099711
     26          1           0       10.524343    3.283855    0.093878
     27          6           0        5.641830    2.391948   -0.953857
     28          1           0        6.041049    2.826873   -1.877358
     29          6           0       11.439190    0.480738    0.957186
     30          1           0       11.688888    0.000000    0.000000
     31          6           0        9.138686   -0.544873   -0.817171
     32          1           0        8.238418   -0.968845   -1.269464
     33          1           0        9.694034   -0.043569   -1.615678
     34          1           0        9.751430   -1.384633   -0.471725
     35          6           0        3.622771    0.890602   -0.746774
     36          6           0        3.547539   -0.689884    1.199767
     37          1           0        3.595919    0.098150    1.964176
     38          1           0        4.009921   -1.578595    1.642476
     39          6           0        4.197844    2.034266   -1.153864
     40          1           0        3.585119    2.794957   -1.636802
     41          6           0        4.554984   -1.415423   -1.019137
     42          1           0        4.930449   -2.308123   -0.510055
     43          1           0        3.604385   -1.686890   -1.484868
     44          1           0        5.248853   -1.164098   -1.826941
     45          6           0        2.145319    0.654667   -1.001676
     46          1           0        1.685242    1.554607   -1.421378
     47          1           0        2.019306   -0.142727   -1.751432
     48          6           0        2.069004   -0.982598    0.902357
     49          1           0        1.975810   -1.845395    0.226376
     50          1           0        1.546564   -1.251445    1.827430
     51          6           0       12.615480    1.452260    1.249275
     52          1           0       13.535284    0.852733    1.259552
     53          1           0       12.725964    2.151957    0.410996
     54          6           0        1.386729    0.227061    0.264045
     55          1           0        1.390038    1.059425    0.978607
     56          6           0       11.384944   -0.628870    2.024136
     57          1           0       10.982297   -0.262399    2.975117
     58          1           0       12.389748   -1.022440    2.218801
     59          1           0       10.763937   -1.470650    1.707484
     60          6           0       12.525084    2.262099    2.553633
     61          1           0       11.585732    2.829138    2.567022
     62          1           0       12.476955    1.584718    3.414997
     63          6           0       13.676140    3.267868    2.747297
     64          1           0       13.464555    3.875018    3.640098
     65          1           0       13.673227    3.967372    1.898770
     66          6           0       15.098092    2.684621    2.891740
     67          1           0       15.320609    2.089107    1.994873
     68          6           0       15.233018    1.763782    4.114892
     69          1           0       14.999011    2.308037    5.039240
     70          1           0       16.255970    1.380929    4.205521
     71          1           0       14.562411    0.900254    4.058512
     72          6           0       16.131913    3.820461    2.956470
     73          1           0       15.964175    4.452153    3.838373
     74          1           0       17.152849    3.426747    3.019651
     75          1           0       16.074529    4.463939    2.071002
 ---------------------------------------------------------------------

 SCF Done:  E(RHF) =  -1198.92655266     A.U. after    9 cycles

 Alpha  occ. eigenvalues --  -20.56053 -20.55385 -11.28228 -11.27807 -11.25021
 Alpha  occ. eigenvalues --  -11.24479 -11.23132 -11.23076 -11.23061 -11.22712
 Alpha  occ. eigenvalues --  -11.22547 -11.22449 -11.22265 -11.22262 -11.22232
 Alpha  occ. eigenvalues --  -11.22205 -11.21970 -11.21745 -11.21526 -11.21382
 Alpha  occ. eigenvalues --  -11.21292 -11.21216 -11.21065 -11.21044 -11.20946
 Alpha  occ. eigenvalues --  -11.20918 -11.20901 -11.20874 -11.20700  -1.35435
 Alpha  occ. eigenvalues --   -1.34466  -1.16008  -1.13885  -1.09572  -1.08009
 Alpha  occ. eigenvalues --   -1.06034  -1.05651  -1.03079  -1.01603  -0.99457
 Alpha  occ. eigenvalues --   -0.97947  -0.96282  -0.92894  -0.92360  -0.92271
 Alpha  occ. eigenvalues --   -0.90902  -0.90693  -0.86488  -0.84056  -0.82893
 Alpha  occ. eigenvalues --   -0.82611  -0.79326  -0.78307  -0.77133  -0.75199
 Alpha  occ. eigenvalues --   -0.72594  -0.71411  -0.69802  -0.67654  -0.66611
 Alpha  occ. eigenvalues --   -0.64647  -0.64202  -0.64033  -0.63436  -0.62440
 Alpha  occ. eigenvalues --   -0.61989  -0.61275  -0.60821  -0.60481  -0.59112
 Alpha  occ. eigenvalues --   -0.58640  -0.57903  -0.57600  -0.56868  -0.56527
 Alpha  occ. eigenvalues --   -0.56195  -0.55785  -0.55522  -0.54891  -0.54431
 Alpha  occ. eigenvalues --   -0.54026  -0.53830  -0.53458  -0.53016  -0.52843
 Alpha  occ. eigenvalues --   -0.52691  -0.52039  -0.50880  -0.50508  -0.49714
 Alpha  occ. eigenvalues --   -0.49484  -0.48421  -0.48120  -0.47913  -0.47226
 Alpha  occ. eigenvalues --   -0.47077  -0.46636  -0.46006  -0.45641  -0.45247
 Alpha  occ. eigenvalues --   -0.44701  -0.44584  -0.44197  -0.43679  -0.43425
 Alpha  occ. eigenvalues --   -0.42927  -0.42733  -0.41988  -0.41673  -0.40058
 Alpha  occ. eigenvalues --   -0.38368  -0.34571
 Alpha virt. eigenvalues --    0.16194   0.20460   0.21287   0.21396   0.22430
 Alpha virt. eigenvalues --    0.23019   0.23991   0.24230   0.24534   0.25239
 Alpha virt. eigenvalues --    0.25652   0.26031   0.26610   0.27306   0.27433

 Mulliken atomic charges:
              1
     1  O   -0.768562
     2  H    0.433688
     3  O   -0.758631
     4  H    0.428738
     5  C   -0.027938
     6  C   -0.144956
     7  H    0.175279
     8  C   -0.187653
     9  H    0.163052
    10  C   -0.163632
    11  H    0.147650
    12  C   -0.142524
    13  H    0.157908
    14  C   -0.298124
    15  H    0.152424
    16  H    0.163872
    17  C   -0.040298
    18  C   -0.326611
    19  H    0.188900
    20  H    0.150502
    21  C   -0.326956
    22  H    0.164766
    23  H    0.164733
    24  C   -0.335313
    25  H    0.158106
    26  H    0.168449
    27  C    0.176666
    28  H    0.180285
    29  C   -0.146807
    30  H    0.156197
    31  C   -0.489804
    32  H    0.160057
    33  H    0.165900
    34  H    0.161671
    35  C    0.073068
    36  C   -0.324185
    37  H    0.161662
    38  H    0.174709
    39  C   -0.286608
    40  H    0.192128
    41  C   -0.480644
    42  H    0.167391
    43  H    0.162780
    44  H    0.171222
    45  C   -0.367182
    46  H    0.194102
    47  H    0.155294
    48  C   -0.340920
    49  H    0.145586
    50  H    0.184022
    51  C   -0.314141
    52  H    0.156312
    53  H    0.160533
    54  C    0.194427
    55  H    0.171216
    56  C   -0.486538
    57  H    0.157430
    58  H    0.156691
    59  H    0.160985
    60  C   -0.319537
    61  H    0.161042
    62  H    0.159140
    63  C   -0.297712
    64  H    0.150644
    65  H    0.151826
    66  C   -0.152192
    67  H    0.156322
    68  C   -0.476587
    69  H    0.151899
    70  H    0.157782
    71  H    0.161106
    72  C   -0.471677
    73  H    0.152150
    74  H    0.157538
    75  H    0.157883
 Sum of Mulliken atomic charges =   0.00000

 Dipole moment (field-independent basis, Debye):
    X=              0.2187    Y=             -2.5960    Z=             -0.4602  Tot=              2.6456
 Quadrupole moment (field-independent basis, Debye-Ang):
   XX=           -198.2289   YY=           -192.9528   ZZ=           -183.3936
   XY=            -12.4122   XZ=             -0.3530   YZ=              1.7925

 Normal termination of Gaussian 09 at Thu May 18 14:03:01 2017.
