 Gaussian 09, Revision C.01,
 Gaussian 09:  EM64L-G09RevC.01 23-Sep-2011

 ----------------------------------------------------------------------
 #P HF/6-31G* SCF(Conver=6) NoSymm Test Pop=mk IOp(6/33=2) GFInput GFPr
 int
 ----------------------------------------------------------------------

 (Enter /scratch/michal/g09/l101.exe)
 ----------------------------------------------
 MEP - Input generated by R.E.D.-III.x MOLECULE
 ----------------------------------------------
 Charge =  0 Multiplicity = 1

                          Input orientation:
 ---------------------------------------------------------------------
 Center     Atomic      Atomic             Coordinates (Angstroms)
 Number     Number       Type             X           Y           Z
 ---------------------------------------------------------------------
      1          8           0        5.763958    3.446317    0.000000
      2          1           0        5.128770    3.287893    0.711109
      3          8           0        0.000000    0.000000    0.000000
      4          1           0       -0.083117   -0.744038   -0.612913
      5          6           0        8.819149    0.369906    0.375958
      6          6           0        7.896074    1.544742   -0.052593
      7          1           0        7.717598    2.126477    0.863016
      8          6           0        6.510393    1.130719   -0.562976
      9          1           0        6.627490    0.545863   -1.486840
     10          6           0        5.776757    0.268781    0.495336
     11          1           0        5.553787    0.947702    1.335288
     12          6           0       10.103708    1.173034    0.785079
     13          1           0        9.868524    1.650698    1.749492
     14          6           0        8.079445   -0.369418    1.510187
     15          1           0        7.980251    0.312801    2.366745
     16          1           0        8.641850   -1.237532    1.868022
     17          6           0        4.388120   -0.252348   -0.016146
     18          6           0        8.780063    2.422477   -0.948564
     19          1           0        8.426520    3.456712   -0.982508
     20          1           0        8.786422    2.049349   -1.980772
     21          6           0        6.681858   -0.848134    1.066586
     22          1           0        6.809520   -1.639776    0.321020
     23          1           0        6.187799   -1.319809    1.923936
     24          6           0       10.187282    2.298987   -0.302643
     25          1           0       10.943601    2.045672   -1.055441
     26          1           0       10.500289    3.248367    0.141515
     27          6           0        5.657335    2.357950   -0.947950
     28          1           0        6.061443    2.785805   -1.872609
     29          6           0       11.450478    0.426741    0.973594
     30          1           0       11.736803    0.000000    0.000000
     31          6           0        9.139818   -0.592226   -0.790941
     32          1           0        8.238768   -1.011782   -1.245901
     33          1           0        9.700297   -0.094039   -1.587785
     34          1           0        9.747538   -1.434609   -0.444230
     35          6           0        3.629724    0.868057   -0.739886
     36          6           0        3.540295   -0.703064    1.213511
     37          1           0        3.590402    0.088289    1.974379
     38          1           0        3.996611   -1.592142    1.661748
     39          6           0        4.212029    2.006846   -1.150279
     40          1           0        3.604674    2.768702   -1.638142
     41          6           0        4.551175   -1.443857   -0.998969
     42          1           0        4.919789   -2.336408   -0.484619
     43          1           0        3.601017   -1.712343   -1.467339
     44          1           0        5.249551   -1.199678   -1.805082
     45          6           0        2.151682    0.639267   -0.997997
     46          1           0        1.697894    1.540107   -1.422605
     47          1           0        2.023182   -0.160294   -1.744985
     48          6           0        2.061159   -0.989395    0.912783
     49          1           0        1.965558   -1.854602    0.240214
     50          1           0        1.534474   -1.251549    1.837369
     51          6           0       12.563144    1.425964    1.377891
     52          1           0       12.522773    2.299416    0.717365
     53          1           0       12.348774    1.801596    2.390406
     54          6           0        1.387131    0.221015    0.267226
     55          1           0        1.392575    1.056443    0.978189
     56          6           0       11.370465   -0.724761    1.991499
     57          1           0       11.005564   -0.365035    2.961921
     58          1           0       12.352559   -1.178312    2.154954
     59          1           0       10.703383   -1.523611    1.660086
     60          6           0       13.997867    0.874051    1.334083
     61          1           0       14.108358    0.050406    2.048404
     62          1           0       14.181915    0.448148    0.338250
     63          6           0       15.044305    1.958395    1.639534
     64          1           0       14.818491    2.396339    2.622698
     65          1           0       14.927799    2.774365    0.911693
     66          6           0       16.525437    1.513390    1.636106
     67          1           0       17.111360    2.416296    1.863619
     68          6           0       16.989392    1.009567    0.259334
     69          1           0       16.494593    0.070802   -0.015247
     70          1           0       18.069343    0.822525    0.256067
     71          1           0       16.775162    1.742962   -0.527044
     72          6           0       16.839279    0.484482    2.735069
     73          1           0       16.340722   -0.473482    2.547316
     74          1           0       17.916039    0.286699    2.787507
     75          1           0       16.517137    0.841921    3.720240
 ---------------------------------------------------------------------

 SCF Done:  E(RHF) =  -1198.92705457     A.U. after    9 cycles

 Alpha  occ. eigenvalues --  -20.56041 -20.55371 -11.28215 -11.27793 -11.25005
 Alpha  occ. eigenvalues --  -11.24460 -11.23113 -11.23063 -11.23047 -11.22700
 Alpha  occ. eigenvalues --  -11.22556 -11.22433 -11.22432 -11.22252 -11.22206
 Alpha  occ. eigenvalues --  -11.22187 -11.21948 -11.21839 -11.21500 -11.21404
 Alpha  occ. eigenvalues --  -11.21301 -11.21190 -11.21040 -11.21028 -11.20957
 Alpha  occ. eigenvalues --  -11.20942 -11.20922 -11.20760 -11.20657  -1.35423
 Alpha  occ. eigenvalues --   -1.34453  -1.15987  -1.13848  -1.09536  -1.08033
 Alpha  occ. eigenvalues --   -1.06024  -1.05731  -1.03063  -1.01668  -0.99467
 Alpha  occ. eigenvalues --   -0.97953  -0.96245  -0.92875  -0.92365  -0.92309
 Alpha  occ. eigenvalues --   -0.90877  -0.90618  -0.86474  -0.84284  -0.82711
 Alpha  occ. eigenvalues --   -0.82593  -0.79071  -0.78057  -0.77085  -0.74536
 Alpha  occ. eigenvalues --   -0.73579  -0.71767  -0.69763  -0.67614  -0.66573
 Alpha  occ. eigenvalues --   -0.64625  -0.64240  -0.63830  -0.63314  -0.62392
 Alpha  occ. eigenvalues --   -0.62205  -0.61250  -0.60944  -0.60204  -0.59288
 Alpha  occ. eigenvalues --   -0.58668  -0.58377  -0.58027  -0.57155  -0.56579
 Alpha  occ. eigenvalues --   -0.56037  -0.55769  -0.55566  -0.54747  -0.54423
 Alpha  occ. eigenvalues --   -0.54286  -0.53580  -0.53223  -0.52815  -0.52512
 Alpha  occ. eigenvalues --   -0.52033  -0.51499  -0.50897  -0.50749  -0.50600
 Alpha  occ. eigenvalues --   -0.48371  -0.48322  -0.48171  -0.47884  -0.47376
 Alpha  occ. eigenvalues --   -0.46849  -0.46601  -0.45899  -0.45521  -0.45476
 Alpha  occ. eigenvalues --   -0.45008  -0.44802  -0.44351  -0.43841  -0.43313
 Alpha  occ. eigenvalues --   -0.43183  -0.42762  -0.42254  -0.41548  -0.39998
 Alpha  occ. eigenvalues --   -0.38244  -0.34554
 Alpha virt. eigenvalues --    0.16213   0.20596   0.21358   0.21734   0.22306
 Alpha virt. eigenvalues --    0.22872   0.24175   0.24550   0.24980   0.25268
 Alpha virt. eigenvalues --    0.25842   0.26133   0.26500   0.27067   0.27146

 Mulliken atomic charges:
              1
     1  O   -0.768370
     2  H    0.433630
     3  O   -0.758660
     4  H    0.428716
     5  C   -0.029954
     6  C   -0.145090
     7  H    0.175431
     8  C   -0.187755
     9  H    0.163049
    10  C   -0.163589
    11  H    0.147520
    12  C   -0.136144
    13  H    0.153517
    14  C   -0.298178
    15  H    0.152504
    16  H    0.164193
    17  C   -0.040183
    18  C   -0.326448
    19  H    0.188717
    20  H    0.150353
    21  C   -0.326823
    22  H    0.164687
    23  H    0.164654
    24  C   -0.336050
    25  H    0.157281
    26  H    0.169974
    27  C    0.176352
    28  H    0.180282
    29  C   -0.148905
    30  H    0.151612
    31  C   -0.489017
    32  H    0.159639
    33  H    0.165879
    34  H    0.162245
    35  C    0.072900
    36  C   -0.324162
    37  H    0.161645
    38  H    0.174683
    39  C   -0.286146
    40  H    0.192082
    41  C   -0.480677
    42  H    0.167378
    43  H    0.162761
    44  H    0.171203
    45  C   -0.367129
    46  H    0.194073
    47  H    0.155237
    48  C   -0.340884
    49  H    0.145569
    50  H    0.183982
    51  C   -0.307368
    52  H    0.166404
    53  H    0.147712
    54  C    0.194405
    55  H    0.171218
    56  C   -0.484772
    57  H    0.152701
    58  H    0.163130
    59  H    0.160817
    60  C   -0.314668
    61  H    0.158854
    62  H    0.153696
    63  C   -0.300861
    64  H    0.151747
    65  H    0.151649
    66  C   -0.146333
    67  H    0.155425
    68  C   -0.476111
    69  H    0.155891
    70  H    0.157936
    71  H    0.156835
    72  C   -0.476205
    73  H    0.155210
    74  H    0.158207
    75  H    0.156890
 Sum of Mulliken atomic charges =   0.00000

 Dipole moment (field-independent basis, Debye):
    X=              0.3070    Y=             -2.4714    Z=             -0.3436  Tot=              2.5139
 Quadrupole moment (field-independent basis, Debye-Ang):
   XX=           -195.9606   YY=           -192.2538   ZZ=           -182.8979
   XY=             -9.6601   XZ=              1.6089   YZ=              2.1998

 Normal termination of Gaussian 09 at Thu May 18 14:13:14 2017.
