 Gaussian 09, Revision C.01,
 Gaussian 09:  EM64L-G09RevC.01 23-Sep-2011

 ----------------------------------------------------------------------
 #P HF/6-31G* SCF(Conver=6) NoSymm Test Pop=mk IOp(6/33=2) GFInput GFPr
 int
 ----------------------------------------------------------------------

 (Enter /scratch/michal/g09/l101.exe)
 ----------------------------------------------
 MEP - Input generated by R.E.D.-III.x MOLECULE
 ----------------------------------------------
 Charge =  0 Multiplicity = 1

                          Input orientation:
 ---------------------------------------------------------------------
 Center     Atomic      Atomic             Coordinates (Angstroms)
 Number     Number       Type             X           Y           Z
 ---------------------------------------------------------------------
      1          8           0        5.765549    3.445707    0.000000
      2          1           0        5.128628    3.289109    0.709938
      3          8           0        0.000000    0.000000    0.000000
      4          1           0       -0.083561   -0.742880   -0.614263
      5          6           0        8.819399    0.369722    0.375032
      6          6           0        7.895932    1.544013   -0.053963
      7          1           0        7.717173    2.126167    0.861320
      8          6           0        6.510389    1.129932   -0.564352
      9          1           0        6.626842    0.545706   -1.488746
     10          6           0        5.777240    0.266914    0.493408
     11          1           0        5.554724    0.944750    1.334350
     12          6           0       10.102853    1.173442    0.786310
     13          1           0        9.867170    1.649120    1.751617
     14          6           0        8.079573   -0.371767    1.507693
     15          1           0        7.979090    0.309189    2.365115
     16          1           0        8.642855   -1.239777    1.864495
     17          6           0        4.388222   -0.253275   -0.018292
     18          6           0        8.780423    2.421255   -0.949820
     19          1           0        8.425493    3.454896   -0.987233
     20          1           0        8.790155    2.045515   -1.981026
     21          6           0        6.682473   -0.850842    1.062596
     22          1           0        6.810800   -1.640793    0.315368
     23          1           0        6.188345   -1.324522    1.918777
     24          6           0       10.185988    2.301598   -0.299490
     25          1           0       10.946177    2.053349   -1.050042
     26          1           0       10.492330    3.251885    0.147427
     27          6           0        5.657467    2.357684   -0.948229
     28          1           0        6.061059    2.785472   -1.873159
     29          6           0       11.448736    0.425792    0.974147
     30          1           0       11.734366    0.000000    0.000000
     31          6           0        9.141919   -0.590901   -0.792604
     32          1           0        8.241186   -1.007063   -1.251127
     33          1           0        9.706083   -0.092540   -1.586709
     34          1           0        9.746311   -1.435583   -0.445730
     35          6           0        3.629640    0.868409   -0.739889
     36          6           0        3.540739   -0.706027    1.210873
     37          1           0        3.591596    0.083867    1.973192
     38          1           0        3.996956   -1.596076    1.657258
     39          6           0        4.211940    2.007419   -1.149590
     40          1           0        3.604493    2.769849   -1.636438
     41          6           0        4.550534   -1.442836   -1.003572
     42          1           0        4.918168   -2.336871   -0.491059
     43          1           0        3.600181   -1.709110   -1.472775
     44          1           0        5.249474   -1.197645   -1.808940
     45          6           0        2.151482    0.640136   -0.997802
     46          1           0        1.697700    1.541520   -1.421248
     47          1           0        2.022830   -0.158610   -1.745695
     48          6           0        2.061253   -0.991272    0.910432
     49          1           0        1.964993   -1.855405    0.236572
     50          1           0        1.535000   -1.254697    1.834898
     51          6           0       12.566625    1.419082    1.384019
     52          1           0       12.478819    2.328438    0.782064
     53          1           0       12.397795    1.728011    2.427500
     54          6           0        1.387277    0.220297    0.267075
     55          1           0        1.393034    1.054638    0.979317
     56          6           0       11.363938   -0.726086    1.991820
     57          1           0       10.968026   -0.370500    2.951359
     58          1           0       12.349480   -1.161461    2.182639
     59          1           0       10.720165   -1.538066    1.645982
     60          6           0       13.998896    0.878883    1.239231
     61          1           0       14.105340   -0.055286    1.803703
     62          1           0       14.177274    0.613349    0.188277
     63          6           0       15.095025    1.842754    1.731397
     64          1           0       16.065407    1.327463    1.673535
     65          1           0       14.924964    2.046851    2.798519
     66          6           0       15.225266    3.192189    0.993005
     67          1           0       14.264679    3.721530    1.067559
     68          6           0       15.552477    3.015903   -0.498296
     69          1           0       16.496051    2.469736   -0.627762
     70          1           0       15.661405    3.987997   -0.992544
     71          1           0       14.771928    2.462384   -1.030253
     72          6           0       16.286307    4.069084    1.677233
     73          1           0       17.275080    3.594617    1.630731
     74          1           0       16.365415    5.049285    1.193324
     75          1           0       16.046605    4.235010    2.733859
 ---------------------------------------------------------------------

 SCF Done:  E(RHF) =  -1198.92682330     A.U. after    9 cycles

 Alpha  occ. eigenvalues --  -20.56050 -20.55386 -11.28226 -11.27809 -11.25018
 Alpha  occ. eigenvalues --  -11.24475 -11.23126 -11.23074 -11.23059 -11.22711
 Alpha  occ. eigenvalues --  -11.22574 -11.22445 -11.22279 -11.22264 -11.22244
 Alpha  occ. eigenvalues --  -11.22204 -11.21962 -11.21874 -11.21514 -11.21442
 Alpha  occ. eigenvalues --  -11.21383 -11.21167 -11.21094 -11.21049 -11.20937
 Alpha  occ. eigenvalues --  -11.20920 -11.20913 -11.20785 -11.20690  -1.35431
 Alpha  occ. eigenvalues --   -1.34468  -1.16005  -1.13871  -1.09596  -1.08045
 Alpha  occ. eigenvalues --   -1.06033  -1.05709  -1.03082  -1.01667  -0.99479
 Alpha  occ. eigenvalues --   -0.97977  -0.96264  -0.92888  -0.92384  -0.92282
 Alpha  occ. eigenvalues --   -0.90939  -0.90642  -0.86486  -0.83990  -0.82614
 Alpha  occ. eigenvalues --   -0.82453  -0.79283  -0.78298  -0.77169  -0.74652
 Alpha  occ. eigenvalues --   -0.73775  -0.71796  -0.69773  -0.67621  -0.66556
 Alpha  occ. eigenvalues --   -0.64513  -0.64227  -0.63907  -0.63251  -0.62985
 Alpha  occ. eigenvalues --   -0.62029  -0.61216  -0.60842  -0.60243  -0.59088
 Alpha  occ. eigenvalues --   -0.58610  -0.58092  -0.57386  -0.57102  -0.56591
 Alpha  occ. eigenvalues --   -0.56228  -0.55849  -0.55408  -0.54772  -0.54450
 Alpha  occ. eigenvalues --   -0.54185  -0.53871  -0.53150  -0.52987  -0.52911
 Alpha  occ. eigenvalues --   -0.52459  -0.52051  -0.51066  -0.50526  -0.49647
 Alpha  occ. eigenvalues --   -0.48754  -0.48340  -0.48075  -0.47901  -0.47248
 Alpha  occ. eigenvalues --   -0.46988  -0.46665  -0.46131  -0.45627  -0.45424
 Alpha  occ. eigenvalues --   -0.45102  -0.44588  -0.44169  -0.43808  -0.43320
 Alpha  occ. eigenvalues --   -0.43126  -0.42786  -0.42320  -0.41561  -0.40035
 Alpha  occ. eigenvalues --   -0.38299  -0.34569
 Alpha virt. eigenvalues --    0.16196   0.20553   0.21350   0.21459   0.22627
 Alpha virt. eigenvalues --    0.22902   0.24073   0.24498   0.24851   0.25255
 Alpha virt. eigenvalues --    0.25776   0.26020   0.26608   0.27077   0.27649

 Mulliken atomic charges:
              1
     1  O   -0.768473
     2  H    0.433668
     3  O   -0.758658
     4  H    0.428726
     5  C   -0.029829
     6  C   -0.145149
     7  H    0.175571
     8  C   -0.187854
     9  H    0.163024
    10  C   -0.163535
    11  H    0.147619
    12  C   -0.136168
    13  H    0.153552
    14  C   -0.298177
    15  H    0.152409
    16  H    0.164399
    17  C   -0.040200
    18  C   -0.326117
    19  H    0.188767
    20  H    0.150539
    21  C   -0.326834
    22  H    0.164712
    23  H    0.164708
    24  C   -0.336663
    25  H    0.157067
    26  H    0.169207
    27  C    0.176530
    28  H    0.180233
    29  C   -0.147270
    30  H    0.151949
    31  C   -0.489136
    32  H    0.159748
    33  H    0.165813
    34  H    0.162345
    35  C    0.072999
    36  C   -0.324177
    37  H    0.161668
    38  H    0.174687
    39  C   -0.286459
    40  H    0.192124
    41  C   -0.480650
    42  H    0.167381
    43  H    0.162796
    44  H    0.171180
    45  C   -0.367192
    46  H    0.194099
    47  H    0.155264
    48  C   -0.340888
    49  H    0.145588
    50  H    0.184013
    51  C   -0.314875
    52  H    0.172655
    53  H    0.147266
    54  C    0.194438
    55  H    0.171230
    56  C   -0.485044
    57  H    0.153316
    58  H    0.162689
    59  H    0.160801
    60  C   -0.312995
    61  H    0.157869
    62  H    0.153462
    63  C   -0.296889
    64  H    0.150376
    65  H    0.151824
    66  C   -0.153164
    67  H    0.156990
    68  C   -0.476249
    69  H    0.151693
    70  H    0.158501
    71  H    0.160975
    72  C   -0.471593
    73  H    0.151872
    74  H    0.158203
    75  H    0.157695
 Sum of Mulliken atomic charges =   0.00000

 Dipole moment (field-independent basis, Debye):
    X=              0.1754    Y=             -2.5429    Z=             -0.3440  Tot=              2.5721
 Quadrupole moment (field-independent basis, Debye-Ang):
   XX=           -199.6282   YY=           -192.3716   ZZ=           -182.9879
   XY=            -11.7143   XZ=              1.4025   YZ=              1.9596

 Normal termination of Gaussian 09 at Thu May 18 14:23:16 2017.
