 Gaussian 09, Revision C.01,
 Gaussian 09:  EM64L-G09RevC.01 23-Sep-2011

 ----------------------------------------------------------------------
 #P HF/6-31G* SCF(Conver=6) NoSymm Test Pop=mk IOp(6/33=2) GFInput GFPr
 int
 ----------------------------------------------------------------------

 (Enter /scratch/michal/g09/l101.exe)
 ----------------------------------------------
 MEP - Input generated by R.E.D.-III.x MOLECULE
 ----------------------------------------------
 Charge =  0 Multiplicity = 1

                          Input orientation:
 ---------------------------------------------------------------------
 Center     Atomic      Atomic             Coordinates (Angstroms)
 Number     Number       Type             X           Y           Z
 ---------------------------------------------------------------------
      1          8           0        6.757449    0.899942    0.000000
      2          1           0        7.109962    0.000000    0.000000
      3          8           0        9.639638   -2.658651    4.914542
      4          1           0        9.380797   -2.463675    5.826219
      5          6           0        2.511312    0.571221    0.860558
      6          6           0        3.961906    1.034276    0.574431
      7          1           0        4.308677    0.416784   -0.265878
      8          6           0        4.949024    0.769666    1.716508
      9          1           0        4.654268    1.362238    2.594546
     10          6           0        4.946044   -0.737316    2.090369
     11          1           0        5.399550   -1.258111    1.230637
     12          6           0        1.833476    1.014368   -0.473853
     13          1           0        2.258103    0.334531   -1.226653
     14          6           0        2.556760   -0.949207    1.091732
     15          1           0        2.890598   -1.436864    0.164547
     16          1           0        1.559395   -1.350969    1.316074
     17          6           0        5.875086   -1.046128    3.316928
     18          6           0        3.806374    2.461259    0.016881
     19          1           0        4.645113    2.734730   -0.629238
     20          1           0        3.771371    3.200283    0.827625
     21          6           0        3.516397   -1.318241    2.242285
     22          1           0        3.075149   -0.978526    3.184470
     23          1           0        3.572844   -2.410407    2.314553
     24          6           0        2.449019    2.421656   -0.753281
     25          1           0        1.789361    3.221973   -0.406221
     26          1           0        2.590381    2.581583   -1.827127
     27          6           0        6.375845    1.233102    1.355693
     28          1           0        6.396026    2.329068    1.363387
     29          6           0        0.290054    0.867763   -0.612513
     30          1           0        0.000000    0.000000    0.000000
     31          6           0        1.885022    1.278278    2.082885
     32          1           0        2.439146    1.080507    3.004075
     33          1           0        1.850204    2.364205    1.958265
     34          1           0        0.859272    0.929133    2.244236
     35          6           0        7.209714   -0.301263    3.178235
     36          6           0        6.169612   -2.578011    3.347902
     37          1           0        6.461172   -2.892621    2.336103
     38          1           0        5.247759   -3.119152    3.586219
     39          6           0        7.405438    0.707290    2.312835
     40          1           0        8.388076    1.174501    2.254336
     41          6           0        5.215807   -0.617002    4.656228
     42          1           0        4.356845   -1.249998    4.898203
     43          1           0        5.916069   -0.692724    5.491776
     44          1           0        4.875381    0.421977    4.615044
     45          6           0        8.339559   -0.744748    4.089452
     46          1           0        9.262923   -0.217014    3.831370
     47          1           0        8.104353   -0.476780    5.131891
     48          6           0        7.275403   -3.007907    4.324028
     49          1           0        6.968430   -2.814108    5.362457
     50          1           0        7.447014   -4.087327    4.244201
     51          6           0       -0.546116    2.073608   -0.120432
     52          1           0       -0.095403    2.510799    0.776231
     53          1           0       -0.522500    2.863438   -0.884859
     54          6           0        8.578938   -2.261452    4.041912
     55          1           0        8.939353   -2.533426    3.042130
     56          6           0       -0.071282    0.528288   -2.073341
     57          1           0        0.258576    1.325960   -2.750600
     58          1           0       -1.150308    0.403805   -2.210271
     59          1           0        0.411089   -0.401486   -2.394804
     60          6           0       -2.010619    1.732060    0.202581
     61          1           0       -2.492572    1.290196   -0.677685
     62          1           0       -2.027001    0.958977    0.982853
     63          6           0       -2.810288    2.960036    0.666582
     64          1           0       -2.767017    3.724924   -0.122279
     65          1           0       -2.306009    3.398518    1.540041
     66          6           0       -4.294552    2.723863    1.031792
     67          1           0       -4.690086    3.705095    1.333514
     68          6           0       -4.466354    1.779906    2.233533
     69          1           0       -4.150579    0.758042    1.993607
     70          1           0       -5.516108    1.732334    2.545024
     71          1           0       -3.877747    2.118612    3.094359
     72          6           0       -5.132269    2.249553   -0.167300
     73          1           0       -4.841389    1.243708   -0.491519
     74          1           0       -6.196877    2.213905    0.090774
     75          1           0       -5.019003    2.923293   -1.024799
 ---------------------------------------------------------------------

 SCF Done:  E(RHF) =  -1198.92459592     A.U. after    9 cycles

 Alpha  occ. eigenvalues --  -20.56056 -20.55375 -11.28230 -11.27798 -11.25048
 Alpha  occ. eigenvalues --  -11.24487 -11.23218 -11.23086 -11.23064 -11.22719
 Alpha  occ. eigenvalues --  -11.22507 -11.22449 -11.22302 -11.22278 -11.22232
 Alpha  occ. eigenvalues --  -11.22227 -11.22052 -11.21632 -11.21625 -11.21477
 Alpha  occ. eigenvalues --  -11.21378 -11.21174 -11.21031 -11.21005 -11.21001
 Alpha  occ. eigenvalues --  -11.20993 -11.20932 -11.20824 -11.20795  -1.35438
 Alpha  occ. eigenvalues --   -1.34457  -1.16025  -1.13905  -1.09521  -1.08018
 Alpha  occ. eigenvalues --   -1.06053  -1.05691  -1.03056  -1.01691  -0.99630
 Alpha  occ. eigenvalues --   -0.97982  -0.96187  -0.92699  -0.92380  -0.92092
 Alpha  occ. eigenvalues --   -0.91258  -0.90655  -0.86498  -0.83981  -0.82970
 Alpha  occ. eigenvalues --   -0.82671  -0.79635  -0.78109  -0.77490  -0.74522
 Alpha  occ. eigenvalues --   -0.72640  -0.71583  -0.69791  -0.67611  -0.66456
 Alpha  occ. eigenvalues --   -0.64458  -0.64110  -0.63854  -0.63665  -0.62621
 Alpha  occ. eigenvalues --   -0.62251  -0.61184  -0.60914  -0.60086  -0.59586
 Alpha  occ. eigenvalues --   -0.58848  -0.58718  -0.57941  -0.57292  -0.56410
 Alpha  occ. eigenvalues --   -0.56162  -0.55832  -0.55351  -0.54942  -0.54370
 Alpha  occ. eigenvalues --   -0.53844  -0.53601  -0.53237  -0.52853  -0.52618
 Alpha  occ. eigenvalues --   -0.52107  -0.51736  -0.51130  -0.50892  -0.49810
 Alpha  occ. eigenvalues --   -0.48565  -0.48367  -0.48281  -0.48038  -0.47404
 Alpha  occ. eigenvalues --   -0.47159  -0.46429  -0.46333  -0.45727  -0.45252
 Alpha  occ. eigenvalues --   -0.45093  -0.44755  -0.44424  -0.44239  -0.43330
 Alpha  occ. eigenvalues --   -0.42792  -0.42356  -0.41797  -0.41585  -0.40058
 Alpha  occ. eigenvalues --   -0.38462  -0.34577
 Alpha virt. eigenvalues --    0.16185   0.20507   0.21352   0.21539   0.22323
 Alpha virt. eigenvalues --    0.22841   0.23874   0.24369   0.24473   0.25239
 Alpha virt. eigenvalues --    0.25626   0.26219   0.26503   0.27173   0.27466

 Mulliken atomic charges:
              1
     1  O   -0.768556
     2  H    0.433693
     3  O   -0.758625
     4  H    0.428732
     5  C   -0.032105
     6  C   -0.144844
     7  H    0.175247
     8  C   -0.187543
     9  H    0.163547
    10  C   -0.163974
    11  H    0.147804
    12  C   -0.149222
    13  H    0.157768
    14  C   -0.295858
    15  H    0.152929
    16  H    0.158204
    17  C   -0.040212
    18  C   -0.328055
    19  H    0.188456
    20  H    0.150507
    21  C   -0.327504
    22  H    0.165379
    23  H    0.165428
    24  C   -0.329899
    25  H    0.165696
    26  H    0.165911
    27  C    0.177539
    28  H    0.180248
    29  C   -0.143604
    30  H    0.155583
    31  C   -0.488907
    32  H    0.160585
    33  H    0.165833
    34  H    0.161960
    35  C    0.072894
    36  C   -0.324429
    37  H    0.161714
    38  H    0.174838
    39  C   -0.286903
    40  H    0.192193
    41  C   -0.480734
    42  H    0.167120
    43  H    0.162899
    44  H    0.171585
    45  C   -0.367264
    46  H    0.194150
    47  H    0.155266
    48  C   -0.340887
    49  H    0.145565
    50  H    0.184040
    51  C   -0.313774
    52  H    0.163306
    53  H    0.152586
    54  C    0.194451
    55  H    0.171250
    56  C   -0.482166
    57  H    0.155878
    58  H    0.160238
    59  H    0.157715
    60  C   -0.314770
    61  H    0.158604
    62  H    0.152629
    63  C   -0.300664
    64  H    0.152118
    65  H    0.150466
    66  C   -0.146265
    67  H    0.155324
    68  C   -0.476024
    69  H    0.155764
    70  H    0.158161
    71  H    0.156194
    72  C   -0.476447
    73  H    0.155778
    74  H    0.158257
    75  H    0.157202
 Sum of Mulliken atomic charges =   0.00000

 Dipole moment (field-independent basis, Debye):
    X=             -1.5501    Y=             -0.5750    Z=              2.0315  Tot=              2.6192
 Quadrupole moment (field-independent basis, Debye-Ang):
   XX=           -215.3822   YY=           -188.3720   ZZ=           -175.8408
   XY=              1.5940   XZ=              6.6660   YZ=              2.7293

 Normal termination of Gaussian 09 at Thu May 18 13:01:51 2017.
