 Gaussian 09, Revision C.01,
 Gaussian 09:  EM64L-G09RevC.01 23-Sep-2011

 ----------------------------------------------------------------------
 #P HF/6-31G* SCF(Conver=6) NoSymm Test Pop=mk IOp(6/33=2) GFInput GFPr
 int
 ----------------------------------------------------------------------

 (Enter /scratch/michal/g09/l101.exe)
 ----------------------------------------------
 MEP - Input generated by R.E.D.-III.x MOLECULE
 ----------------------------------------------
 Charge =  0 Multiplicity = 1

                          Input orientation:
 ---------------------------------------------------------------------
 Center     Atomic      Atomic             Coordinates (Angstroms)
 Number     Number       Type             X           Y           Z
 ---------------------------------------------------------------------
      1          8           0        0.000000    0.000000    0.000000
      2          1           0        0.966532    0.000000    0.000000
      3          8           0        4.366538   -1.252778   -4.945351
      4          1           0        4.093417   -1.055549   -5.852366
      5          6           0       -1.245823    4.104827   -0.724234
      6          6           0       -1.141025    2.570812   -0.498505
      7          1           0       -0.444347    2.446061    0.342639
      8          6           0       -0.532874    1.782762   -1.664971
      9          1           0       -1.192686    1.868793   -2.540527
     10          6           0        0.867214    2.341284   -2.025171
     11          1           0        1.519730    2.091289   -1.172027
     12          6           0       -1.923589    4.524080    0.626568
     13          1           0       -1.138890    4.430199    1.391418
     14          6           0        0.192935    4.609346   -0.956480
     15          1           0        0.776102    4.443003   -0.039326
     16          1           0        0.220749    5.686195   -1.152107
     17          6           0        1.494917    1.622645   -3.270749
     18          6           0       -2.523229    2.161003    0.030308
     19          1           0       -2.475356    1.243711    0.623687
     20          1           0       -3.221184    1.974358   -0.796028
     21          6           0        0.870030    3.884348   -2.137846
     22          1           0        0.369045    4.189725   -3.062224
     23          1           0        1.901712    4.245046   -2.222126
     24          6           0       -2.972911    3.389147    0.870044
     25          1           0       -3.971770    3.723590    0.565463
     26          1           0       -3.042907    3.143231    1.934296
     27          6           0       -0.448977    0.274658   -1.348234
     28          1           0       -1.462775   -0.141509   -1.368461
     29          6           0       -2.538531    5.939026    0.764320
     30          1           0       -3.324260    6.029063    0.000000
     31          6           0       -2.154197    4.474436   -1.918925
     32          1           0       -1.822314    4.014390   -2.853277
     33          1           0       -3.190178    4.161678   -1.756887
     34          1           0       -2.162212    5.558118   -2.078781
     35          6           0        1.284641    0.105703   -3.175676
     36          6           0        3.029289    1.904581   -3.289072
     37          1           0        3.425591    1.716512   -2.281484
     38          1           0        3.199845    2.966721   -3.494899
     39          6           0        0.414632   -0.466393   -2.327038
     40          1           0        0.335058   -1.552771   -2.299383
     41          6           0        0.860262    2.119973   -4.598199
     42          1           0        1.137392    3.157496   -4.807478
     43          1           0        1.189681    1.521041   -5.450843
     44          1           0       -0.231528    2.057093   -4.563480
     45          6           0        2.109449   -0.759914   -4.110504
     46          1           0        1.952368   -1.818825   -3.883027
     47          1           0        1.776559   -0.608012   -5.149716
     48          6           0        3.833187    1.059099   -4.288626
     49          1           0        3.543878    1.305083   -5.321024
     50          1           0        4.901206    1.287958   -4.199521
     51          6           0       -3.261938    6.139646    2.124196
     52          1           0       -3.758488    7.118164    2.085212
     53          1           0       -4.067863    5.400844    2.219856
     54          6           0        3.609630   -0.434039   -4.050338
     55          1           0        3.991527   -0.700033   -3.056940
     56          6           0       -1.532655    7.079811    0.520638
     57          1           0       -0.631574    6.968476    1.134194
     58          1           0       -1.984533    8.048021    0.767207
     59          1           0       -1.214506    7.128323   -0.523843
     60          6           0       -2.381720    6.069026    3.383397
     61          1           0       -1.849460    5.109657    3.403516
     62          1           0       -1.603642    6.841077    3.342857
     63          6           0       -3.166536    6.191169    4.703681
     64          1           0       -2.474455    6.014196    5.540459
     65          1           0       -3.905340    5.377705    4.745635
     66          6           0       -3.897756    7.525905    4.962115
     67          1           0       -4.601976    7.700253    4.136164
     68          6           0       -2.933538    8.721378    5.020249
     69          1           0       -2.192944    8.585307    5.819247
     70          1           0       -3.475521    9.651620    5.225497
     71          1           0       -2.388066    8.858874    4.081032
     72          6           0       -4.722000    7.435763    6.256567
     73          1           0       -4.070904    7.265266    7.123705
     74          1           0       -5.280969    8.360912    6.438131
     75          1           0       -5.442627    6.610923    6.214790
 ---------------------------------------------------------------------

 SCF Done:  E(RHF) =  -1198.92655265     A.U. after    9 cycles

 Alpha  occ. eigenvalues --  -20.56053 -20.55385 -11.28228 -11.27807 -11.25021
 Alpha  occ. eigenvalues --  -11.24479 -11.23132 -11.23076 -11.23061 -11.22712
 Alpha  occ. eigenvalues --  -11.22547 -11.22449 -11.22265 -11.22262 -11.22232
 Alpha  occ. eigenvalues --  -11.22205 -11.21970 -11.21745 -11.21526 -11.21382
 Alpha  occ. eigenvalues --  -11.21292 -11.21216 -11.21065 -11.21044 -11.20946
 Alpha  occ. eigenvalues --  -11.20918 -11.20901 -11.20874 -11.20700  -1.35435
 Alpha  occ. eigenvalues --   -1.34466  -1.16008  -1.13885  -1.09572  -1.08009
 Alpha  occ. eigenvalues --   -1.06034  -1.05651  -1.03079  -1.01603  -0.99457
 Alpha  occ. eigenvalues --   -0.97947  -0.96282  -0.92894  -0.92360  -0.92271
 Alpha  occ. eigenvalues --   -0.90902  -0.90693  -0.86488  -0.84056  -0.82893
 Alpha  occ. eigenvalues --   -0.82611  -0.79326  -0.78307  -0.77133  -0.75199
 Alpha  occ. eigenvalues --   -0.72594  -0.71411  -0.69802  -0.67654  -0.66611
 Alpha  occ. eigenvalues --   -0.64647  -0.64202  -0.64033  -0.63436  -0.62440
 Alpha  occ. eigenvalues --   -0.61989  -0.61275  -0.60821  -0.60481  -0.59112
 Alpha  occ. eigenvalues --   -0.58640  -0.57903  -0.57600  -0.56868  -0.56527
 Alpha  occ. eigenvalues --   -0.56195  -0.55785  -0.55522  -0.54891  -0.54431
 Alpha  occ. eigenvalues --   -0.54026  -0.53830  -0.53458  -0.53016  -0.52843
 Alpha  occ. eigenvalues --   -0.52691  -0.52039  -0.50880  -0.50508  -0.49714
 Alpha  occ. eigenvalues --   -0.49484  -0.48421  -0.48120  -0.47913  -0.47226
 Alpha  occ. eigenvalues --   -0.47077  -0.46636  -0.46006  -0.45641  -0.45247
 Alpha  occ. eigenvalues --   -0.44701  -0.44584  -0.44197  -0.43679  -0.43425
 Alpha  occ. eigenvalues --   -0.42927  -0.42733  -0.41988  -0.41673  -0.40058
 Alpha  occ. eigenvalues --   -0.38368  -0.34571
 Alpha virt. eigenvalues --    0.16194   0.20460   0.21287   0.21396   0.22430
 Alpha virt. eigenvalues --    0.23019   0.23991   0.24230   0.24534   0.25239
 Alpha virt. eigenvalues --    0.25652   0.26031   0.26610   0.27306   0.27433

 Mulliken atomic charges:
              1
     1  O   -0.768562
     2  H    0.433689
     3  O   -0.758631
     4  H    0.428737
     5  C   -0.027938
     6  C   -0.144955
     7  H    0.175279
     8  C   -0.187653
     9  H    0.163052
    10  C   -0.163632
    11  H    0.147650
    12  C   -0.142524
    13  H    0.157908
    14  C   -0.298124
    15  H    0.152424
    16  H    0.163872
    17  C   -0.040298
    18  C   -0.326612
    19  H    0.188900
    20  H    0.150502
    21  C   -0.326956
    22  H    0.164766
    23  H    0.164733
    24  C   -0.335313
    25  H    0.158106
    26  H    0.168449
    27  C    0.176666
    28  H    0.180285
    29  C   -0.146807
    30  H    0.156197
    31  C   -0.489804
    32  H    0.160057
    33  H    0.165901
    34  H    0.161671
    35  C    0.073069
    36  C   -0.324185
    37  H    0.161661
    38  H    0.174709
    39  C   -0.286609
    40  H    0.192128
    41  C   -0.480644
    42  H    0.167391
    43  H    0.162780
    44  H    0.171222
    45  C   -0.367182
    46  H    0.194101
    47  H    0.155294
    48  C   -0.340920
    49  H    0.145586
    50  H    0.184022
    51  C   -0.314141
    52  H    0.156312
    53  H    0.160533
    54  C    0.194427
    55  H    0.171216
    56  C   -0.486539
    57  H    0.157430
    58  H    0.156691
    59  H    0.160985
    60  C   -0.319538
    61  H    0.161042
    62  H    0.159140
    63  C   -0.297712
    64  H    0.150644
    65  H    0.151826
    66  C   -0.152192
    67  H    0.156323
    68  C   -0.476587
    69  H    0.151899
    70  H    0.157782
    71  H    0.161106
    72  C   -0.471677
    73  H    0.152150
    74  H    0.157538
    75  H    0.157883
 Sum of Mulliken atomic charges =   0.00000

 Dipole moment (field-independent basis, Debye):
    X=             -0.0439    Y=              1.6879    Z=             -2.0367  Tot=              2.6456
 Quadrupole moment (field-independent basis, Debye-Ang):
   XX=           -193.3280   YY=           -188.4606   ZZ=           -177.2548
   XY=              7.1934   XZ=              4.2175   YZ=             -7.4652

 Normal termination of Gaussian 09 at Thu May 18 14:00:28 2017.
