 Gaussian 09, Revision C.01,
 Gaussian 09:  EM64L-G09RevC.01 23-Sep-2011

 ----------------------------------------------------------------------
 #P HF/6-31G* SCF(Conver=6) NoSymm Test Pop=mk IOp(6/33=2) GFInput GFPr
 int
 ----------------------------------------------------------------------

 (Enter /scratch/michal/g09/l101.exe)
 ----------------------------------------------
 MEP - Input generated by R.E.D.-III.x MOLECULE
 ----------------------------------------------
 Charge =  0 Multiplicity = 1

                          Input orientation:
 ---------------------------------------------------------------------
 Center     Atomic      Atomic             Coordinates (Angstroms)
 Number     Number       Type             X           Y           Z
 ---------------------------------------------------------------------
      1          8           0        6.729807    0.820431    0.000000
      2          1           0        7.240772    0.000000    0.000000
      3          8           0       11.398383   -1.412133    4.278699
      4          1           0       11.341978   -1.125690    5.201161
      5          6           0        2.973136   -0.067538    2.004541
      6          6           0        4.195880    0.590527    1.302309
      7          1           0        4.440687   -0.067431    0.457041
      8          6           0        5.470593    0.663744    2.151263
      9          1           0        5.297243    1.329189    3.009096
     10          6           0        5.860885   -0.744778    2.669574
     11          1           0        6.174510   -1.316276    1.780099
     12          6           0        1.927460    0.067164    0.843007
     13          1           0        2.297461   -0.616496    0.066642
     14          6           0        3.396895   -1.500641    2.379226
     15          1           0        3.599915   -2.064912    1.458343
     16          1           0        2.593960   -2.032411    2.903505
     17          6           0        7.110642   -0.705681    3.617479
     18          6           0        3.636488    1.885784    0.688751
     19          1           0        4.228687    2.215999   -0.169281
     20          1           0        3.646462    2.703079    1.421279
     21          6           0        4.655191   -1.506952    3.271374
     22          1           0        4.392076   -1.079444    4.244252
     23          1           0        4.939325   -2.547471    3.466402
     24          6           0        2.178894    1.508917    0.296138
     25          1           0        1.465394    2.223355    0.719384
     26          1           0        2.029925    1.533617   -0.788870
     27          6           0        6.639727    1.293485    1.364729
     28          1           0        6.442774    2.365588    1.249808
     29          6           0        0.415556   -0.272658    0.982444
     30          1           0        0.000000    0.000000    0.000000
     31          6           0        2.543651    0.708906    3.271314
     32          1           0        3.383771    0.889007    3.947090
     33          1           0        2.110709    1.683466    3.031725
     34          1           0        1.794716    0.146259    3.836342
     35          6           0        8.191443    0.218418    3.040825
     36          6           0        7.703107   -2.145249    3.722729
     37          1           0        7.789512   -2.556556    2.707341
     38          1           0        6.997197   -2.789172    4.258059
     39          6           0        7.959129    1.099058    2.053463
     40          1           0        8.782173    1.706802    1.678563
     41          6           0        6.736503   -0.193470    5.035107
     42          1           0        6.108216   -0.915147    5.565665
     43          1           0        7.624179   -0.026531    5.650206
     44          1           0        6.197485    0.757279    4.983395
     45          6           0        9.578319    0.112411    3.648231
     46          1           0       10.283163    0.739603    3.093673
     47          1           0        9.562570    0.493956    4.681663
     48          6           0        9.080650   -2.233356    4.397280
     49          1           0        9.011028   -1.937979    5.454587
     50          1           0        9.438822   -3.268983    4.384262
     51          6           0        0.108593   -1.776032    1.189705
     52          1           0        0.514699   -2.095744    2.157906
     53          1           0       -0.980884   -1.878095    1.286475
     54          6           0       10.096084   -1.333299    3.693785
     55          1           0       10.242141   -1.690936    2.667049
     56          6           0       -0.391158    0.544787    2.011809
     57          1           0       -0.214838    0.205894    3.036945
     58          1           0       -1.462914    0.428759    1.813876
     59          1           0       -0.168088    1.614859    1.970316
     60          6           0        0.599189   -2.756441    0.106330
     61          1           0        1.695165   -2.757305    0.074914
     62          1           0        0.318639   -3.770712    0.418407
     63          6           0        0.081307   -2.501110   -1.322328
     64          1           0        0.521580   -3.258693   -1.987563
     65          1           0        0.463808   -1.535518   -1.679669
     66          6           0       -1.449507   -2.519879   -1.517761
     67          1           0       -1.889821   -1.752171   -0.865041
     68          6           0       -2.073552   -3.872669   -1.139508
     69          1           0       -1.648160   -4.680986   -1.748599
     70          1           0       -3.156367   -3.864984   -1.308564
     71          1           0       -1.906688   -4.125413   -0.087450
     72          6           0       -1.804155   -2.149279   -2.966869
     73          1           0       -1.395263   -2.886295   -3.670017
     74          1           0       -2.889545   -2.115548   -3.115314
     75          1           0       -1.397541   -1.168682   -3.239820
 ---------------------------------------------------------------------

 SCF Done:  E(RHF) =  -1198.91936328     A.U. after    9 cycles

 Alpha  occ. eigenvalues --  -20.56057 -20.55394 -11.28233 -11.27816 -11.25037
 Alpha  occ. eigenvalues --  -11.24487 -11.23175 -11.23087 -11.23066 -11.22719
 Alpha  occ. eigenvalues --  -11.22589 -11.22455 -11.22379 -11.22353 -11.22271
 Alpha  occ. eigenvalues --  -11.22215 -11.22005 -11.21830 -11.21618 -11.21494
 Alpha  occ. eigenvalues --  -11.21405 -11.21362 -11.21058 -11.21032 -11.20995
 Alpha  occ. eigenvalues --  -11.20979 -11.20801 -11.20792 -11.20763  -1.35439
 Alpha  occ. eigenvalues --   -1.34477  -1.16009  -1.13848  -1.09627  -1.07963
 Alpha  occ. eigenvalues --   -1.06045  -1.05601  -1.03108  -1.01622  -0.99545
 Alpha  occ. eigenvalues --   -0.97950  -0.96337  -0.92661  -0.92448  -0.92322
 Alpha  occ. eigenvalues --   -0.91576  -0.90557  -0.86495  -0.84031  -0.82950
 Alpha  occ. eigenvalues --   -0.82510  -0.79352  -0.78558  -0.77180  -0.74690
 Alpha  occ. eigenvalues --   -0.73105  -0.71337  -0.69712  -0.67590  -0.66324
 Alpha  occ. eigenvalues --   -0.64843  -0.64193  -0.63879  -0.63422  -0.62491
 Alpha  occ. eigenvalues --   -0.62031  -0.61172  -0.61062  -0.59831  -0.59502
 Alpha  occ. eigenvalues --   -0.58670  -0.58111  -0.57823  -0.57443  -0.56715
 Alpha  occ. eigenvalues --   -0.56179  -0.55877  -0.55357  -0.55083  -0.54521
 Alpha  occ. eigenvalues --   -0.54211  -0.53704  -0.53305  -0.52944  -0.52741
 Alpha  occ. eigenvalues --   -0.52059  -0.51593  -0.50939  -0.50680  -0.50301
 Alpha  occ. eigenvalues --   -0.49219  -0.48593  -0.48146  -0.48062  -0.47436
 Alpha  occ. eigenvalues --   -0.46919  -0.46760  -0.46274  -0.45724  -0.45255
 Alpha  occ. eigenvalues --   -0.44981  -0.44317  -0.44214  -0.44093  -0.43251
 Alpha  occ. eigenvalues --   -0.42835  -0.42443  -0.41935  -0.41562  -0.39995
 Alpha  occ. eigenvalues --   -0.38324  -0.34579
 Alpha virt. eigenvalues --    0.16188   0.19849   0.20950   0.21356   0.22375
 Alpha virt. eigenvalues --    0.23066   0.23672   0.24055   0.24490   0.25201
 Alpha virt. eigenvalues --    0.25383   0.26024   0.26451   0.26869   0.27552

 Mulliken atomic charges:
              1
     1  O   -0.768438
     2  H    0.433663
     3  O   -0.758609
     4  H    0.428743
     5  C   -0.022280
     6  C   -0.148726
     7  H    0.176569
     8  C   -0.188150
     9  H    0.163118
    10  C   -0.163621
    11  H    0.147438
    12  C   -0.155855
    13  H    0.161490
    14  C   -0.302215
    15  H    0.154111
    16  H    0.162133
    17  C   -0.040295
    18  C   -0.326233
    19  H    0.187854
    20  H    0.151077
    21  C   -0.326798
    22  H    0.166242
    23  H    0.164798
    24  C   -0.328314
    25  H    0.158436
    26  H    0.164912
    27  C    0.177192
    28  H    0.180476
    29  C   -0.146953
    30  H    0.156874
    31  C   -0.486689
    32  H    0.158971
    33  H    0.167026
    34  H    0.160480
    35  C    0.073067
    36  C   -0.324235
    37  H    0.161597
    38  H    0.174680
    39  C   -0.286669
    40  H    0.192204
    41  C   -0.480475
    42  H    0.167444
    43  H    0.162801
    44  H    0.171226
    45  C   -0.367229
    46  H    0.194131
    47  H    0.155310
    48  C   -0.340842
    49  H    0.145637
    50  H    0.184030
    51  C   -0.308999
    52  H    0.155220
    53  H    0.155843
    54  C    0.194417
    55  H    0.171228
    56  C   -0.481254
    57  H    0.155744
    58  H    0.157090
    59  H    0.160569
    60  C   -0.320284
    61  H    0.161568
    62  H    0.158140
    63  C   -0.303510
    64  H    0.151201
    65  H    0.156431
    66  C   -0.152034
    67  H    0.155468
    68  C   -0.476796
    69  H    0.152058
    70  H    0.158204
    71  H    0.161831
    72  C   -0.471598
    73  H    0.152596
    74  H    0.157933
    75  H    0.157828
 Sum of Mulliken atomic charges =   0.00000

 Dipole moment (field-independent basis, Debye):
    X=             -0.8405    Y=             -0.5537    Z=              2.3783  Tot=              2.5825
 Quadrupole moment (field-independent basis, Debye-Ang):
   XX=           -210.2756   YY=           -186.5082   ZZ=           -173.9892
   XY=              0.4666   XZ=             14.3465   YZ=              1.5714

 Normal termination of Gaussian 09 at Thu May 18 13:45:28 2017.
