 Gaussian 09, Revision C.01,
 Gaussian 09:  EM64L-G09RevC.01 23-Sep-2011

 ----------------------------------------------------------------------
 #P HF/6-31G* SCF(Conver=6) NoSymm Test Pop=mk IOp(6/33=2) GFInput GFPr
 int
 ----------------------------------------------------------------------

 (Enter /scratch/michal/g09/l101.exe)
 ----------------------------------------------
 MEP - Input generated by R.E.D.-III.x MOLECULE
 ----------------------------------------------
 Charge =  0 Multiplicity = 1

                          Input orientation:
 ---------------------------------------------------------------------
 Center     Atomic      Atomic             Coordinates (Angstroms)
 Number     Number       Type             X           Y           Z
 ---------------------------------------------------------------------
      1          8           0        6.851765    0.783434    0.000000
      2          1           0        7.417830    0.000000    0.000000
      3          8           0       10.458907   -1.991171    4.939799
      4          1           0       10.144485   -1.879603    5.848018
      5          6           0        2.800381   -0.612217    0.755969
      6          6           0        4.103619    0.201250    0.519267
      7          1           0        4.607934   -0.292213   -0.323794
      8          6           0        5.106289    0.176937    1.679481
      9          1           0        4.655295    0.665566    2.555433
     10          6           0        5.477791   -1.282065    2.046015
     11          1           0        6.057286   -1.669555    1.191507
     12          6           0        2.052096   -0.317899   -0.591512
     13          1           0        2.566933   -0.915107   -1.360843
     14          6           0        3.239497   -2.071741    0.995162
     15          1           0        3.712427   -2.450365    0.077588
     16          1           0        2.387230   -2.727571    1.198727
     17          6           0        6.435700   -1.361531    3.286032
     18          6           0        3.620467    1.558220   -0.009769
     19          1           0        4.391189    2.064707   -0.597347
     20          1           0        3.351378    2.228884    0.816376
     21          6           0        4.229741   -2.187150    2.172160
     22          1           0        3.693760   -1.952996    3.097764
     23          1           0        4.541792   -3.234099    2.262306
     24          6           0        2.372756    1.193020   -0.859825
     25          1           0        1.514814    1.818755   -0.585437
     26          1           0        2.555758    1.370310   -1.923653
     27          6           0        6.374565    0.992436    1.350256
     28          1           0        6.116796    2.057637    1.366883
     29          6           0        0.539412   -0.636250   -0.718562
     30          1           0        0.000000    0.000000    0.000000
     31          6           0        1.975761   -0.082865    1.951629
     32          1           0        2.549505   -0.072042    2.881951
     33          1           0        1.619757    0.937704    1.781427
     34          1           0        1.094542   -0.709839    2.123827
     35          6           0        7.540443   -0.302162    3.177525
     36          6           0        7.107289   -2.769533    3.308613
     37          1           0        7.486077   -2.986144    2.300011
     38          1           0        6.348300   -3.529386    3.523447
     39          6           0        7.487788    0.733062    2.323162
     40          1           0        8.320740    1.434581    2.285880
     41          6           0        5.669167   -1.130802    4.616973
     42          1           0        4.993677   -1.963015    4.836618
     43          1           0        6.353001   -1.039567    5.464487
     44          1           0        5.078476   -0.210531    4.579694
     45          6           0        8.731316   -0.456972    4.105604
     46          1           0        9.495563    0.289593    3.868362
     47          1           0        8.419876   -0.269590    5.145677
     48          6           0        8.269516   -2.918783    4.302127
     49          1           0        7.906857   -2.822145    5.336153
     50          1           0        8.709886   -3.918656    4.216654
     51          6           0        0.031194   -0.256305   -2.131951
     52          1           0        0.357071    0.763031   -2.369878
     53          1           0        0.523444   -0.911552   -2.865287
     54          6           0        9.346485   -1.863714    4.050643
     55          1           0        9.779931   -2.023420    3.055627
     56          6           0        0.196734   -2.102802   -0.402534
     57          1           0        0.766629   -2.785942   -1.045184
     58          1           0       -0.866253   -2.304740   -0.564300
     59          1           0        0.414739   -2.362926    0.635557
     60          6           0       -1.495012   -0.313279   -2.316574
     61          1           0       -1.852648   -1.347562   -2.255576
     62          1           0       -1.969585    0.217911   -1.479137
     63          6           0       -1.993722    0.325358   -3.626209
     64          1           0       -1.696683    1.384105   -3.633618
     65          1           0       -3.093926    0.319111   -3.624057
     66          6           0       -1.511216   -0.323694   -4.941000
     67          1           0       -0.412052   -0.302396   -4.951583
     68          6           0       -1.998914    0.495229   -6.146920
     69          1           0       -3.095552    0.507735   -6.193494
     70          1           0       -1.631531    0.073698   -7.089579
     71          1           0       -1.656827    1.534938   -6.088490
     72          6           0       -1.955837   -1.789264   -5.069724
     73          1           0       -3.050502   -1.868038   -5.040344
     74          1           0       -1.617968   -2.218472   -6.019883
     75          1           0       -1.555220   -2.414969   -4.265540
 ---------------------------------------------------------------------

 SCF Done:  E(RHF) =  -1198.92722209     A.U. after    9 cycles

 Alpha  occ. eigenvalues --  -20.56051 -20.55383 -11.28226 -11.27806 -11.25016
 Alpha  occ. eigenvalues --  -11.24476 -11.23122 -11.23073 -11.23059 -11.22710
 Alpha  occ. eigenvalues --  -11.22574 -11.22446 -11.22281 -11.22263 -11.22238
 Alpha  occ. eigenvalues --  -11.22202 -11.21962 -11.21859 -11.21518 -11.21442
 Alpha  occ. eigenvalues --  -11.21386 -11.21195 -11.21064 -11.21044 -11.20937
 Alpha  occ. eigenvalues --  -11.20932 -11.20914 -11.20787 -11.20674  -1.35432
 Alpha  occ. eigenvalues --   -1.34466  -1.16002  -1.13867  -1.09621  -1.08051
 Alpha  occ. eigenvalues --   -1.06034  -1.05710  -1.03079  -1.01662  -0.99476
 Alpha  occ. eigenvalues --   -0.97974  -0.96260  -0.92898  -0.92382  -0.92289
 Alpha  occ. eigenvalues --   -0.90922  -0.90629  -0.86485  -0.84023  -0.82608
 Alpha  occ. eigenvalues --   -0.82495  -0.79251  -0.78303  -0.77167  -0.74669
 Alpha  occ. eigenvalues --   -0.73642  -0.71813  -0.69775  -0.67619  -0.66583
 Alpha  occ. eigenvalues --   -0.64809  -0.64260  -0.63922  -0.63499  -0.62336
 Alpha  occ. eigenvalues --   -0.61534  -0.61260  -0.61027  -0.60390  -0.59247
 Alpha  occ. eigenvalues --   -0.58618  -0.58185  -0.57630  -0.56804  -0.56577
 Alpha  occ. eigenvalues --   -0.56213  -0.55755  -0.55417  -0.54929  -0.54389
 Alpha  occ. eigenvalues --   -0.54065  -0.53910  -0.53357  -0.52980  -0.52890
 Alpha  occ. eigenvalues --   -0.52486  -0.52038  -0.50973  -0.50179  -0.49717
 Alpha  occ. eigenvalues --   -0.49028  -0.48352  -0.48072  -0.47886  -0.47341
 Alpha  occ. eigenvalues --   -0.46959  -0.46780  -0.46045  -0.45614  -0.45448
 Alpha  occ. eigenvalues --   -0.45122  -0.44544  -0.44234  -0.43448  -0.43331
 Alpha  occ. eigenvalues --   -0.43126  -0.42808  -0.42418  -0.41614  -0.40039
 Alpha  occ. eigenvalues --   -0.38295  -0.34568
 Alpha virt. eigenvalues --    0.16197   0.20571   0.21347   0.21635   0.22515
 Alpha virt. eigenvalues --    0.22921   0.24118   0.24500   0.24937   0.25264
 Alpha virt. eigenvalues --    0.25968   0.26222   0.26437   0.27142   0.27291

 Mulliken atomic charges:
              1
     1  O   -0.768469
     2  H    0.433676
     3  O   -0.758640
     4  H    0.428732
     5  C   -0.029898
     6  C   -0.145215
     7  H    0.175554
     8  C   -0.187660
     9  H    0.163020
    10  C   -0.163603
    11  H    0.147632
    12  C   -0.135968
    13  H    0.153235
    14  C   -0.298249
    15  H    0.152531
    16  H    0.164069
    17  C   -0.040229
    18  C   -0.326428
    19  H    0.188718
    20  H    0.150425
    21  C   -0.326790
    22  H    0.164720
    23  H    0.164700
    24  C   -0.335879
    25  H    0.157389
    26  H    0.169640
    27  C    0.176519
    28  H    0.180262
    29  C   -0.148923
    30  H    0.151707
    31  C   -0.488914
    32  H    0.159676
    33  H    0.165910
    34  H    0.162197
    35  C    0.073012
    36  C   -0.324174
    37  H    0.161656
    38  H    0.174698
    39  C   -0.286493
    40  H    0.192108
    41  C   -0.480675
    42  H    0.167374
    43  H    0.162786
    44  H    0.171211
    45  C   -0.367162
    46  H    0.194095
    47  H    0.155287
    48  C   -0.340914
    49  H    0.145595
    50  H    0.184012
    51  C   -0.311605
    52  H    0.165730
    53  H    0.151242
    54  C    0.194412
    55  H    0.171221
    56  C   -0.485528
    57  H    0.152085
    58  H    0.164346
    59  H    0.161200
    60  C   -0.312950
    61  H    0.158414
    62  H    0.153917
    63  C   -0.298392
    64  H    0.151620
    65  H    0.150287
    66  C   -0.151989
    67  H    0.157790
    68  C   -0.471886
    69  H    0.151895
    70  H    0.157956
    71  H    0.157889
    72  C   -0.476703
    73  H    0.151643
    74  H    0.158168
    75  H    0.161371
 Sum of Mulliken atomic charges =   0.00000

 Dipole moment (field-independent basis, Debye):
    X=             -1.3278    Y=             -0.9565    Z=              1.9879  Tot=              2.5748
 Quadrupole moment (field-independent basis, Debye-Ang):
   XX=           -216.4124   YY=           -186.2659   ZZ=           -176.6028
   XY=             -2.9110   XZ=              5.3370   YZ=              0.8366

 Normal termination of Gaussian 09 at Thu May 18 12:35:40 2017.
