 Gaussian 09, Revision C.01,
 Gaussian 09:  EM64L-G09RevC.01 23-Sep-2011

 ----------------------------------------------------------------------
 #P HF/6-31G* SCF(Conver=6) NoSymm Test Pop=mk IOp(6/33=2) GFInput GFPr
 int
 ----------------------------------------------------------------------

 (Enter /scratch/michal/g09/l101.exe)
 ----------------------------------------------
 MEP - Input generated by R.E.D.-III.x MOLECULE
 ----------------------------------------------
 Charge =  0 Multiplicity = 1

                          Input orientation:
 ---------------------------------------------------------------------
 Center     Atomic      Atomic             Coordinates (Angstroms)
 Number     Number       Type             X           Y           Z
 ---------------------------------------------------------------------
      1          8           0        6.731867    0.818950    0.000000
      2          1           0        7.245172    0.000000    0.000000
      3          8           0       11.397273   -1.414984    4.282422
      4          1           0       11.340568   -1.128082    5.204725
      5          6           0        2.973891   -0.065970    2.003932
      6          6           0        4.197485    0.590337    1.301191
      7          1           0        4.441962   -0.068888    0.456788
      8          6           0        5.471823    0.662939    2.150674
      9          1           0        5.298425    1.328194    3.008634
     10          6           0        5.861421   -0.745688    2.668896
     11          1           0        6.175932   -1.316999    1.779592
     12          6           0        1.927871    0.069188    0.842815
     13          1           0        2.295696   -0.617032    0.067507
     14          6           0        3.396455   -1.499661    2.378236
     15          1           0        3.598257   -2.063784    1.457004
     16          1           0        2.593353   -2.030922    2.902740
     17          6           0        7.110426   -0.706858    3.617926
     18          6           0        3.639553    1.885412    0.686123
     19          1           0        4.232714    2.214796   -0.171570
     20          1           0        3.649289    2.703204    1.418108
     21          6           0        4.655214   -1.507833    3.269747
     22          1           0        4.392658   -1.081376    4.243189
     23          1           0        4.938765   -2.548749    3.463479
     24          6           0        2.182162    1.509187    0.292295
     25          1           0        1.468996    2.225874    0.712158
     26          1           0        2.035004    1.530961   -0.793024
     27          6           0        6.641584    1.292234    1.364706
     28          1           0        6.445314    2.364466    1.249811
     29          6           0        0.415306   -0.266888    0.983748
     30          1           0        0.000000    0.000000    0.000000
     31          6           0        2.545660    0.711071    3.270477
     32          1           0        3.385669    0.887871    3.947267
     33          1           0        2.116176    1.687126    3.030772
     34          1           0        1.794208    0.150583    3.834299
     35          6           0        8.192101    0.216462    3.041469
     36          6           0        7.701973   -2.146613    3.724945
     37          1           0        7.788966   -2.558893    2.709993
     38          1           0        6.995308   -2.789690    4.260306
     39          6           0        7.960626    1.097074    2.053867
     40          1           0        8.784139    1.704401    1.679305
     41          6           0        6.735794   -0.193307    5.034984
     42          1           0        6.104333   -0.912811    5.564708
     43          1           0        7.623271   -0.029642    5.651314
     44          1           0        6.200119    0.759295    4.982517
     45          6           0        9.578602    0.110282    3.649603
     46          1           0       10.284113    0.736471    3.094769
     47          1           0        9.562585    0.492850    4.682663
     48          6           0        9.078940   -2.234504    4.400589
     49          1           0        9.008696   -1.937761    5.457485
     50          1           0        9.436730   -3.270280    4.389091
     51          6           0        0.105759   -1.768151    1.204434
     52          1           0        0.501092   -2.073707    2.181627
     53          1           0       -0.986304   -1.870184    1.284685
     54          6           0       10.095320   -1.335734    3.696775
     55          1           0       10.241640   -1.694480    2.670456
     56          6           0       -0.390530    0.558782    2.007286
     57          1           0       -0.215205    0.226870    3.034860
     58          1           0       -1.462259    0.442777    1.809361
     59          1           0       -0.165888    1.628214    1.958461
     60          6           0        0.594716   -2.766564    0.137460
     61          1           0        1.688870   -2.735181    0.057058
     62          1           0        0.351730   -3.774074    0.497367
     63          6           0       -0.018000   -2.561579   -1.256515
     64          1           0        0.229568   -1.554306   -1.616077
     65          1           0       -1.116088   -2.595049   -1.179597
     66          6           0        0.436423   -3.575110   -2.328032
     67          1           0        1.537441   -3.570447   -2.343528
     68          6           0       -0.052097   -3.142804   -3.719858
     69          1           0       -1.148844   -3.123217   -3.759924
     70          1           0        0.295376   -3.833664   -4.496508
     71          1           0        0.308223   -2.140120   -3.976783
     72          6           0       -0.024521   -5.009392   -2.021108
     73          1           0       -1.120092   -5.062671   -1.973788
     74          1           0        0.307161   -5.702088   -2.802970
     75          1           0        0.369339   -5.376767   -1.068309
 ---------------------------------------------------------------------

 SCF Done:  E(RHF) =  -1198.92052350     A.U. after    9 cycles

 Alpha  occ. eigenvalues --  -20.56060 -20.55396 -11.28236 -11.27817 -11.25039
 Alpha  occ. eigenvalues --  -11.24492 -11.23174 -11.23090 -11.23069 -11.22722
 Alpha  occ. eigenvalues --  -11.22581 -11.22458 -11.22445 -11.22308 -11.22272
 Alpha  occ. eigenvalues --  -11.22212 -11.22002 -11.21821 -11.21611 -11.21470
 Alpha  occ. eigenvalues --  -11.21412 -11.21362 -11.21057 -11.21022 -11.20978
 Alpha  occ. eigenvalues --  -11.20970 -11.20795 -11.20758 -11.20750  -1.35441
 Alpha  occ. eigenvalues --   -1.34479  -1.16007  -1.13840  -1.09541  -1.08008
 Alpha  occ. eigenvalues --   -1.06052  -1.05721  -1.03107  -1.01669  -0.99599
 Alpha  occ. eigenvalues --   -0.97952  -0.96330  -0.92643  -0.92393  -0.92317
 Alpha  occ. eigenvalues --   -0.91534  -0.90493  -0.86496  -0.83955  -0.82828
 Alpha  occ. eigenvalues --   -0.82410  -0.78891  -0.78478  -0.76973  -0.75922
 Alpha  occ. eigenvalues --   -0.73237  -0.71359  -0.69713  -0.67589  -0.66311
 Alpha  occ. eigenvalues --   -0.64737  -0.64110  -0.63868  -0.63249  -0.62746
 Alpha  occ. eigenvalues --   -0.61758  -0.61142  -0.60625  -0.60318  -0.59340
 Alpha  occ. eigenvalues --   -0.59024  -0.58664  -0.57719  -0.57442  -0.56358
 Alpha  occ. eigenvalues --   -0.55946  -0.55680  -0.55146  -0.54728  -0.54480
 Alpha  occ. eigenvalues --   -0.54115  -0.53758  -0.53407  -0.52939  -0.52782
 Alpha  occ. eigenvalues --   -0.52699  -0.52025  -0.51172  -0.50581  -0.49911
 Alpha  occ. eigenvalues --   -0.48740  -0.48403  -0.48092  -0.47775  -0.47479
 Alpha  occ. eigenvalues --   -0.47055  -0.46867  -0.46340  -0.45722  -0.45300
 Alpha  occ. eigenvalues --   -0.45206  -0.44733  -0.44287  -0.43458  -0.43271
 Alpha  occ. eigenvalues --   -0.42865  -0.42481  -0.42117  -0.41583  -0.39988
 Alpha  occ. eigenvalues --   -0.38309  -0.34583
 Alpha virt. eigenvalues --    0.16181   0.20255   0.21096   0.21479   0.22188
 Alpha virt. eigenvalues --    0.22998   0.23803   0.24484   0.24663   0.25097
 Alpha virt. eigenvalues --    0.25241   0.26070   0.26680   0.26997   0.27844

 Mulliken atomic charges:
              1
     1  O   -0.768571
     2  H    0.433662
     3  O   -0.758625
     4  H    0.428748
     5  C   -0.022807
     6  C   -0.148607
     7  H    0.176300
     8  C   -0.188103
     9  H    0.163159
    10  C   -0.163522
    11  H    0.147430
    12  C   -0.155245
    13  H    0.160129
    14  C   -0.301827
    15  H    0.153954
    16  H    0.162146
    17  C   -0.040466
    18  C   -0.326236
    19  H    0.187782
    20  H    0.151059
    21  C   -0.326882
    22  H    0.166180
    23  H    0.164734
    24  C   -0.328125
    25  H    0.158613
    26  H    0.164766
    27  C    0.177332
    28  H    0.180461
    29  C   -0.147838
    30  H    0.157969
    31  C   -0.486497
    32  H    0.158879
    33  H    0.167074
    34  H    0.160499
    35  C    0.073181
    36  C   -0.324197
    37  H    0.161579
    38  H    0.174717
    39  C   -0.286967
    40  H    0.192192
    41  C   -0.480417
    42  H    0.167481
    43  H    0.162762
    44  H    0.171260
    45  C   -0.367227
    46  H    0.194128
    47  H    0.155368
    48  C   -0.340902
    49  H    0.145644
    50  H    0.184042
    51  C   -0.302922
    52  H    0.154620
    53  H    0.152299
    54  C    0.194425
    55  H    0.171199
    56  C   -0.481330
    57  H    0.155408
    58  H    0.157886
    59  H    0.160497
    60  C   -0.317087
    61  H    0.156354
    62  H    0.158603
    63  C   -0.300525
    64  H    0.157223
    65  H    0.146683
    66  C   -0.146344
    67  H    0.150882
    68  C   -0.472508
    69  H    0.152552
    70  H    0.158025
    71  H    0.158431
    72  C   -0.476198
    73  H    0.151835
    74  H    0.158263
    75  H    0.161560
 Sum of Mulliken atomic charges =   0.00000

 Dipole moment (field-independent basis, Debye):
    X=             -0.7922    Y=             -0.5748    Z=              2.3433  Tot=              2.5395
 Quadrupole moment (field-independent basis, Debye-Ang):
   XX=           -210.0107   YY=           -186.6736   ZZ=           -173.9254
   XY=              0.5753   XZ=             14.2540   YZ=              1.4931

 Normal termination of Gaussian 09 at Thu May 18 13:50:52 2017.
