 Gaussian 09, Revision C.01,
 Gaussian 09:  EM64L-G09RevC.01 23-Sep-2011

 ----------------------------------------------------------------------
 #P HF/6-31G* SCF(Conver=6) NoSymm Test Pop=mk IOp(6/33=2) GFInput GFPr
 int
 ----------------------------------------------------------------------

 (Enter /scratch/michal/g09/l101.exe)
 ----------------------------------------------
 MEP - Input generated by R.E.D.-III.x MOLECULE
 ----------------------------------------------
 Charge =  0 Multiplicity = 1

                          Input orientation:
 ---------------------------------------------------------------------
 Center     Atomic      Atomic             Coordinates (Angstroms)
 Number     Number       Type             X           Y           Z
 ---------------------------------------------------------------------
      1          8           0        0.000000    0.000000    0.000000
      2          1           0       -0.473779    0.455188   -0.708896
      3          8           0       -3.263326    5.869535    0.000000
      4          1           0       -2.962557    6.555421    0.612589
      5          6           0        4.184983    1.132308   -0.373096
      6          6           0        2.797206    0.577912    0.054899
      7          1           0        2.351694    0.164244   -0.861024
      8          6           0        1.805118    1.630174    0.564778
      9          1           0        2.198840    2.077834    1.488865
     10          6           0        1.602086    2.743340   -0.493890
     11          1           0        1.069174    2.266970   -1.333661
     12          6           0        4.894418   -0.206690   -0.780836
     13          1           0        4.450543   -0.503938   -1.744303
     14          6           0        3.915023    2.142144   -1.507916
     15          1           0        3.488076    1.600885   -2.364484
     16          1           0        4.836284    2.612415   -1.865675
     17          6           0        0.660916    3.889873    0.017196
     18          6           0        3.121257   -0.624946    0.950871
     19          1           0        2.297750   -1.343743    0.981627
     20          1           0        3.310136   -0.306008    1.984006
     21          6           0        2.944754    3.256635   -1.065189
     22          1           0        3.451616    3.878533   -0.320070
     23          1           0        2.753363    3.911560   -1.923098
     24          6           0        4.403783   -1.221167    0.308734
     25          1           0        5.183835   -1.374571    1.064199
     26          1           0        4.204498   -2.202128   -0.132401
     27          6           0        0.451918    0.995030    0.948879
     28          1           0        0.586975    0.422070    1.873461
     29          6           0        6.434046   -0.237296   -0.971161
     30          1           0        6.891685    0.000000    0.000000
     31          6           0        4.944017    1.805576    0.793298
     32          1           0        4.373902    2.620234    1.247412
     33          1           0        5.179500    1.094392    1.590845
     34          1           0        5.891873    2.230390    0.446187
     35          6           0       -0.556958    3.299921    0.740489
     36          6           0        0.153245    4.704638   -1.212683
     37          1           0       -0.199395    3.994596   -1.973704
     38          1           0        0.993613    5.245686   -1.660606
     39          6           0       -0.623383    2.022624    1.150922
     40          1           0       -1.530731    1.667423    1.638625
     41          6           0        1.398392    4.839730    1.000140
     42          1           0        2.164074    5.428145    0.485739
     43          1           0        0.710013    5.547464    1.468647
     44          1           0        1.881092    4.278802    1.806073
     45          6           0       -1.721516    4.238397    0.998265
     46          1           0       -2.565657    3.686213    1.422805
     47          1           0       -1.432154    4.994799    1.745231
     48          6           0       -0.983643    5.693376   -0.912332
     49          1           0       -0.633166    6.490050   -0.239609
     50          1           0       -1.307887    6.184107   -1.837008
     51          6           0        6.883068   -1.666642   -1.370206
     52          1           0        6.478892   -2.383914   -0.648208
     53          1           0        6.412873   -1.916231   -2.333170
     54          6           0       -2.173462    4.983404   -0.267074
     55          1           0       -2.587164    4.257720   -0.978171
     56          6           0        6.941256    0.791027   -1.996625
     57          1           0        6.460581    0.643768   -2.972190
     58          1           0        8.021853    0.704819   -2.144951
     59          1           0        6.745976    1.817930   -1.680452
     60          6           0        8.400198   -1.909983   -1.501098
     61          1           0        8.546312   -2.951835   -1.813717
     62          1           0        8.805725   -1.305416   -2.321575
     63          6           0        9.241245   -1.633009   -0.240499
     64          1           0        9.174941   -0.565900    0.011711
     65          1           0       10.298340   -1.815295   -0.484985
     66          6           0        8.890904   -2.452985    1.019297
     67          1           0        7.837574   -2.263948    1.271783
     68          6           0        9.740830   -1.983915    2.211217
     69          1           0       10.808528   -2.152506    2.020316
     70          1           0        9.477730   -2.526464    3.126471
     71          1           0        9.602931   -0.913700    2.404168
     72          6           0        9.057316   -3.965409    0.801551
     73          1           0       10.091280   -4.206765    0.522278
     74          1           0        8.822938   -4.520461    1.717024
     75          1           0        8.401725   -4.344015    0.010797
 ---------------------------------------------------------------------

 SCF Done:  E(RHF) =  -1198.92566954     A.U. after    9 cycles

 Alpha  occ. eigenvalues --  -20.56052 -20.55386 -11.28228 -11.27810 -11.25021
 Alpha  occ. eigenvalues --  -11.24479 -11.23126 -11.23076 -11.23060 -11.22713
 Alpha  occ. eigenvalues --  -11.22581 -11.22449 -11.22365 -11.22267 -11.22205
 Alpha  occ. eigenvalues --  -11.22193 -11.21967 -11.21871 -11.21524 -11.21449
 Alpha  occ. eigenvalues --  -11.21382 -11.21230 -11.21086 -11.21050 -11.21006
 Alpha  occ. eigenvalues --  -11.20962 -11.20951 -11.20779 -11.20688  -1.35434
 Alpha  occ. eigenvalues --   -1.34468  -1.16007  -1.13875  -1.09689  -1.08004
 Alpha  occ. eigenvalues --   -1.06032  -1.05639  -1.03087  -1.01651  -0.99343
 Alpha  occ. eigenvalues --   -0.97977  -0.96255  -0.92928  -0.92434  -0.92327
 Alpha  occ. eigenvalues --   -0.91166  -0.90636  -0.86489  -0.84342  -0.82699
 Alpha  occ. eigenvalues --   -0.82614  -0.79112  -0.78172  -0.77172  -0.74770
 Alpha  occ. eigenvalues --   -0.72959  -0.71868  -0.69783  -0.67628  -0.66616
 Alpha  occ. eigenvalues --   -0.64579  -0.64243  -0.64073  -0.63286  -0.63009
 Alpha  occ. eigenvalues --   -0.62028  -0.61201  -0.60798  -0.60190  -0.58914
 Alpha  occ. eigenvalues --   -0.58573  -0.58533  -0.57381  -0.57271  -0.56567
 Alpha  occ. eigenvalues --   -0.56096  -0.55912  -0.55483  -0.54845  -0.54597
 Alpha  occ. eigenvalues --   -0.54259  -0.53672  -0.53285  -0.53035  -0.52762
 Alpha  occ. eigenvalues --   -0.52133  -0.51951  -0.51291  -0.50776  -0.49676
 Alpha  occ. eigenvalues --   -0.48872  -0.48258  -0.48071  -0.47968  -0.47367
 Alpha  occ. eigenvalues --   -0.46951  -0.46860  -0.46296  -0.45650  -0.45464
 Alpha  occ. eigenvalues --   -0.45120  -0.44495  -0.44050  -0.43659  -0.43166
 Alpha  occ. eigenvalues --   -0.42962  -0.42792  -0.42392  -0.41550  -0.40048
 Alpha  occ. eigenvalues --   -0.38320  -0.34571
 Alpha virt. eigenvalues --    0.16194   0.20266   0.21000   0.21339   0.22640
 Alpha virt. eigenvalues --    0.22995   0.23346   0.24382   0.24972   0.25293
 Alpha virt. eigenvalues --    0.25989   0.26097   0.26437   0.26793   0.27530

 Mulliken atomic charges:
              1
     1  O   -0.768482
     2  H    0.433706
     3  O   -0.758643
     4  H    0.428732
     5  C   -0.029481
     6  C   -0.145357
     7  H    0.175717
     8  C   -0.187647
     9  H    0.163017
    10  C   -0.163639
    11  H    0.147690
    12  C   -0.134969
    13  H    0.153555
    14  C   -0.298303
    15  H    0.152686
    16  H    0.164048
    17  C   -0.040211
    18  C   -0.326414
    19  H    0.188990
    20  H    0.150461
    21  C   -0.326811
    22  H    0.164658
    23  H    0.164744
    24  C   -0.339484
    25  H    0.159250
    26  H    0.170165
    27  C    0.176500
    28  H    0.180261
    29  C   -0.154156
    30  H    0.155956
    31  C   -0.489076
    32  H    0.159879
    33  H    0.165648
    34  H    0.161861
    35  C    0.073055
    36  C   -0.324187
    37  H    0.161669
    38  H    0.174693
    39  C   -0.286513
    40  H    0.192138
    41  C   -0.480684
    42  H    0.167375
    43  H    0.162804
    44  H    0.171193
    45  C   -0.367177
    46  H    0.194101
    47  H    0.155289
    48  C   -0.340912
    49  H    0.145586
    50  H    0.184026
    51  C   -0.313787
    52  H    0.169144
    53  H    0.151105
    54  C    0.194422
    55  H    0.171229
    56  C   -0.485270
    57  H    0.152688
    58  H    0.164000
    59  H    0.160910
    60  C   -0.317630
    61  H    0.159430
    62  H    0.158532
    63  C   -0.302600
    64  H    0.154796
    65  H    0.150831
    66  C   -0.154615
    67  H    0.157598
    68  C   -0.471434
    69  H    0.152550
    70  H    0.158064
    71  H    0.156489
    72  C   -0.476782
    73  H    0.151946
    74  H    0.158399
    75  H    0.162677
 Sum of Mulliken atomic charges =   0.00000

 Dipole moment (field-independent basis, Debye):
    X=              1.4264    Y=              2.0705    Z=              0.3076  Tot=              2.5330
 Quadrupole moment (field-independent basis, Debye-Ang):
   XX=           -197.1695   YY=           -178.8601   ZZ=           -183.0933
   XY=              9.6203   XZ=             -2.1184   YZ=              4.6081

 Normal termination of Gaussian 09 at Thu May 18 14:29:59 2017.
