 Gaussian 09, Revision C.01,
 Gaussian 09:  EM64L-G09RevC.01 23-Sep-2011

 ----------------------------------------------------------------------
 #P HF/6-31G* SCF(Conver=6) NoSymm Test Pop=mk IOp(6/33=2) GFInput GFPr
 int
 ----------------------------------------------------------------------

 (Enter /scratch/michal/g09/l101.exe)
 ----------------------------------------------
 MEP - Input generated by R.E.D.-III.x MOLECULE
 ----------------------------------------------
 Charge =  0 Multiplicity = 1

                          Input orientation:
 ---------------------------------------------------------------------
 Center     Atomic      Atomic             Coordinates (Angstroms)
 Number     Number       Type             X           Y           Z
 ---------------------------------------------------------------------
      1          8           0        0.000000    0.000000    0.000000
      2          1           0        0.966535    0.000000    0.000000
      3          8           0        4.355700   -1.269544   -4.953848
      4          1           0        4.081011   -1.070507   -5.859994
      5          6           0       -1.234845    4.107418   -0.728614
      6          6           0       -1.135950    2.573277   -0.501602
      7          1           0       -0.441345    2.446449    0.340882
      8          6           0       -0.528699    1.782476   -1.666598
      9          1           0       -1.187642    1.869324   -2.542739
     10          6           0        0.873324    2.336355   -2.026554
     11          1           0        1.525066    2.083899   -1.173536
     12          6           0       -1.915138    4.529216    0.620216
     13          1           0       -1.135144    4.425814    1.389370
     14          6           0        0.205780    4.607245   -0.958926
     15          1           0        0.787096    4.438827   -0.040890
     16          1           0        0.237135    5.683875   -1.154798
     17          6           0        1.497811    1.615494   -3.272387
     18          6           0       -2.521002    2.168060    0.024017
     19          1           0       -2.475540    1.255044    0.624165
     20          1           0       -3.215347    1.975043   -0.803863
     21          6           0        0.882156    3.879455   -2.139032
     22          1           0        0.384322    4.186945   -3.064448
     23          1           0        1.915439    4.236067   -2.221261
     24          6           0       -2.974918    3.402115    0.852980
     25          1           0       -3.966342    3.742192    0.530928
     26          1           0       -3.064369    3.161089    1.916645
     27          6           0       -0.449070    0.274480   -1.348146
     28          1           0       -1.464141   -0.138592   -1.367124
     29          6           0       -2.515557    5.949634    0.761537
     30          1           0       -3.303986    6.044732    0.000000
     31          6           0       -2.139835    4.478167   -1.925684
     32          1           0       -1.805407    4.018223   -2.859128
     33          1           0       -3.176437    4.166005   -1.766950
     34          1           0       -2.146640    5.561728   -2.085539
     35          6           0        1.282121    0.099295   -3.177058
     36          6           0        3.033313    1.890986   -3.291578
     37          1           0        3.429541    1.699373   -2.284623
     38          1           0        3.208284    2.952753   -3.495644
     39          6           0        0.411412   -0.469865   -2.327180
     40          1           0        0.328566   -1.555975   -2.299002
     41          6           0        0.864275    2.115644   -4.599275
     42          1           0        1.147920    3.151126   -4.809934
     43          1           0        1.188320    1.513715   -5.451829
     44          1           0       -0.227854    2.060103   -4.562638
     45          6           0        2.102364   -0.769288   -4.113259
     46          1           0        1.941828   -1.827629   -3.885528
     47          1           0        1.767930   -0.616252   -5.151797
     48          6           0        3.832483    1.043582   -4.293422
     49          1           0        3.542199    1.291672   -5.325052
     50          1           0        4.901488    1.268437   -4.205974
     51          6           0       -3.260650    6.138825    2.114521
     52          1           0       -3.665756    7.160863    2.132573
     53          1           0       -4.135698    5.478128    2.104673
     54          6           0        3.603884   -0.448963   -4.056183
     55          1           0        3.987250   -0.717480   -3.064038
     56          6           0       -1.503890    7.079987    0.489244
     57          1           0       -0.568831    6.941685    1.040961
     58          1           0       -1.921069    8.050129    0.781958
     59          1           0       -1.249771    7.144373   -0.572450
     60          6           0       -2.512733    5.885112    3.442607
     61          1           0       -3.281299    5.794250    4.220868
     62          1           0       -2.013744    4.909245    3.406995
     63          6           0       -1.509130    6.969630    3.873421
     64          1           0       -1.986400    7.954579    3.766369
     65          1           0       -0.651432    6.973388    3.190971
     66          6           0       -0.964154    6.851652    5.317706
     67          1           0       -0.243540    7.674779    5.434021
     68          6           0       -0.195060    5.541099    5.554110
     69          1           0       -0.859726    4.670378    5.515785
     70          1           0        0.285207    5.542461    6.539315
     71          1           0        0.588702    5.396661    4.801041
     72          6           0       -2.050728    7.055110    6.386897
     73          1           0       -2.783891    6.240409    6.384099
     74          1           0       -1.607721    7.089533    7.388831
     75          1           0       -2.593663    7.994551    6.229582
 ---------------------------------------------------------------------

 SCF Done:  E(RHF) =  -1198.92115504     A.U. after    9 cycles

 Alpha  occ. eigenvalues --  -20.56048 -20.55381 -11.28224 -11.27801 -11.25017
 Alpha  occ. eigenvalues --  -11.24473 -11.23130 -11.23073 -11.23056 -11.22709
 Alpha  occ. eigenvalues --  -11.22549 -11.22442 -11.22369 -11.22261 -11.22215
 Alpha  occ. eigenvalues --  -11.22200 -11.21967 -11.21772 -11.21520 -11.21370
 Alpha  occ. eigenvalues --  -11.21288 -11.21222 -11.21053 -11.21039 -11.20932
 Alpha  occ. eigenvalues --  -11.20892 -11.20872 -11.20752 -11.20700  -1.35429
 Alpha  occ. eigenvalues --   -1.34464  -1.16005  -1.13877  -1.09394  -1.07940
 Alpha  occ. eigenvalues --   -1.06025  -1.05533  -1.03075  -1.01558  -0.99266
 Alpha  occ. eigenvalues --   -0.97910  -0.96266  -0.92932  -0.92396  -0.92249
 Alpha  occ. eigenvalues --   -0.91400  -0.90684  -0.86483  -0.84363  -0.82985
 Alpha  occ. eigenvalues --   -0.82606  -0.79147  -0.78151  -0.77026  -0.74478
 Alpha  occ. eigenvalues --   -0.72731  -0.71488  -0.69807  -0.67661  -0.66662
 Alpha  occ. eigenvalues --   -0.64815  -0.64207  -0.63795  -0.62954  -0.62351
 Alpha  occ. eigenvalues --   -0.61513  -0.61407  -0.61091  -0.60136  -0.59672
 Alpha  occ. eigenvalues --   -0.58680  -0.58562  -0.57628  -0.56783  -0.56527
 Alpha  occ. eigenvalues --   -0.56281  -0.55722  -0.55551  -0.54843  -0.54478
 Alpha  occ. eigenvalues --   -0.54139  -0.53779  -0.53343  -0.52821  -0.52553
 Alpha  occ. eigenvalues --   -0.52180  -0.51938  -0.51426  -0.50779  -0.50372
 Alpha  occ. eigenvalues --   -0.48427  -0.48234  -0.48140  -0.48033  -0.47366
 Alpha  occ. eigenvalues --   -0.47046  -0.46721  -0.46386  -0.45638  -0.45221
 Alpha  occ. eigenvalues --   -0.44863  -0.44591  -0.43656  -0.43546  -0.43274
 Alpha  occ. eigenvalues --   -0.42886  -0.42636  -0.41944  -0.41585  -0.40058
 Alpha  occ. eigenvalues --   -0.38352  -0.34565
 Alpha virt. eigenvalues --    0.16201   0.20360   0.21161   0.21397   0.22220
 Alpha virt. eigenvalues --    0.23211   0.24171   0.24215   0.24556   0.25330
 Alpha virt. eigenvalues --    0.25365   0.26037   0.26756   0.26964   0.27665

 Mulliken atomic charges:
              1
     1  O   -0.768494
     2  H    0.433691
     3  O   -0.758639
     4  H    0.428725
     5  C   -0.028414
     6  C   -0.144755
     7  H    0.175380
     8  C   -0.187755
     9  H    0.163106
    10  C   -0.163602
    11  H    0.147493
    12  C   -0.142660
    13  H    0.156371
    14  C   -0.298205
    15  H    0.151671
    16  H    0.164711
    17  C   -0.040172
    18  C   -0.326790
    19  H    0.188820
    20  H    0.150589
    21  C   -0.326971
    22  H    0.164849
    23  H    0.164658
    24  C   -0.336501
    25  H    0.158142
    26  H    0.169900
    27  C    0.176560
    28  H    0.180352
    29  C   -0.142755
    30  H    0.154985
    31  C   -0.489732
    32  H    0.159957
    33  H    0.166038
    34  H    0.161937
    35  C    0.072957
    36  C   -0.324175
    37  H    0.161597
    38  H    0.174711
    39  C   -0.286344
    40  H    0.192129
    41  C   -0.480767
    42  H    0.167367
    43  H    0.162798
    44  H    0.171270
    45  C   -0.367173
    46  H    0.194099
    47  H    0.155280
    48  C   -0.340924
    49  H    0.145621
    50  H    0.184006
    51  C   -0.313700
    52  H    0.151996
    53  H    0.162288
    54  C    0.194412
    55  H    0.171258
    56  C   -0.486675
    57  H    0.157957
    58  H    0.158286
    59  H    0.158925
    60  C   -0.319920
    61  H    0.158190
    62  H    0.162415
    63  C   -0.302817
    64  H    0.149454
    65  H    0.156832
    66  C   -0.146918
    67  H    0.154444
    68  C   -0.476600
    69  H    0.157871
    70  H    0.158024
    71  H    0.155120
    72  C   -0.476386
    73  H    0.156020
    74  H    0.158092
    75  H    0.156488
 Sum of Mulliken atomic charges =   0.00000

 Dipole moment (field-independent basis, Debye):
    X=             -0.0383    Y=              1.7571    Z=             -1.9501  Tot=              2.6252
 Quadrupole moment (field-independent basis, Debye-Ang):
   XX=           -193.2911   YY=           -187.6059   ZZ=           -176.5281
   XY=              7.4730   XZ=              3.6811   YZ=             -6.3845

 Normal termination of Gaussian 09 at Thu May 18 12:49:48 2017.
