 Gaussian 09, Revision C.01,
 Gaussian 09:  EM64L-G09RevC.01 23-Sep-2011

 ----------------------------------------------------------------------
 #P HF/6-31G* SCF(Conver=6) NoSymm Test Pop=mk IOp(6/33=2) GFInput GFPr
 int
 ----------------------------------------------------------------------

 (Enter /scratch/michal/g09/l101.exe)
 ----------------------------------------------
 MEP - Input generated by R.E.D.-III.x MOLECULE
 ----------------------------------------------
 Charge =  0 Multiplicity = 1

                          Input orientation:
 ---------------------------------------------------------------------
 Center     Atomic      Atomic             Coordinates (Angstroms)
 Number     Number       Type             X           Y           Z
 ---------------------------------------------------------------------
      1          8           0        5.746312    3.473137    0.000000
      2          1           0        5.110632    3.310038    0.709565
      3          8           0        0.000000    0.000000    0.000000
      4          1           0       -0.081055   -0.742915   -0.614551
      5          6           0        8.816501    0.410900    0.350873
      6          6           0        7.887528    1.583649   -0.069185
      7          1           0        7.707100    2.157624    0.850835
      8          6           0        6.502862    1.164960   -0.578178
      9          1           0        6.619866    0.585113   -1.505264
     10          6           0        5.777435    0.294235    0.479171
     11          1           0        5.554417    0.968629    1.322727
     12          6           0       10.095289    1.221179    0.759931
     13          1           0        9.845163    1.705591    1.715254
     14          6           0        8.086232   -0.338010    1.484145
     15          1           0        7.986917    0.338345    2.345342
     16          1           0        8.656126   -1.205177    1.833250
     17          6           0        4.389101   -0.230947   -0.029379
     18          6           0        8.765511    2.474334   -0.960474
     19          1           0        8.414344    3.509896   -0.970893
     20          1           0        8.757699    2.120869   -1.999620
     21          6           0        6.689226   -0.821281    1.043157
     22          1           0        6.818084   -1.609305    0.294039
     23          1           0        6.199561   -1.298468    1.899966
     24          6           0       10.182293    2.333486   -0.336977
     25          1           0       10.917602    2.055832   -1.101555
     26          1           0       10.527757    3.279348    0.091902
     27          6           0        5.642329    2.389642   -0.953903
     28          1           0        6.041697    2.824544   -1.877337
     29          6           0       11.439643    0.477743    0.957652
     30          1           0       11.693531    0.000000    0.000000
     31          6           0        9.138773   -0.546986   -0.818601
     32          1           0        8.238473   -0.970477   -1.271278
     33          1           0        9.694272   -0.045205   -1.616686
     34          1           0        9.751269   -1.387134   -0.473737
     35          6           0        3.623210    0.888587   -0.746720
     36          6           0        3.547165   -0.688910    1.201748
     37          1           0        3.595920    0.100732    1.964473
     38          1           0        4.009055   -1.576918    1.646360
     39          6           0        4.198397    2.032089   -1.154049
     40          1           0        3.585756    2.792645   -1.637299
     41          6           0        4.553632   -1.418690   -1.016414
     42          1           0        4.927310   -2.311266   -0.505832
     43          1           0        3.603025   -1.689389   -1.482581
     44          1           0        5.248618   -1.169376   -1.823882
     45          6           0        2.145808    0.652966   -1.001900
     46          1           0        1.686271    1.552631   -1.422778
     47          1           0        2.019664   -0.145184   -1.750793
     48          6           0        2.068496   -0.981522    0.904700
     49          1           0        1.975101   -1.845422    0.230169
     50          1           0        1.545810   -1.248592    1.830146
     51          6           0       12.610705    1.452093    1.256246
     52          1           0       13.535522    0.858178    1.288313
     53          1           0       12.731853    2.144167    0.413540
     54          6           0        1.386695    0.227260    0.264199
     55          1           0        1.389779    1.060744    0.977457
     56          6           0       11.383950   -0.634957    2.021344
     57          1           0       10.974727   -0.273211    2.971286
     58          1           0       12.389281   -1.024866    2.220541
     59          1           0       10.767791   -1.478157    1.698951
     60          6           0       12.513021    2.270617    2.554703
     61          1           0       11.613575    2.897743    2.528572
     62          1           0       12.394178    1.593571    3.409244
     63          6           0       13.751428    3.156756    2.768082
     64          1           0       13.868089    3.813676    1.893859
     65          1           0       14.643869    2.514289    2.783858
     66          6           0       13.764005    4.035944    4.040355
     67          1           0       14.717265    4.584711    4.017638
     68          6           0       13.752539    3.205897    5.334827
     69          1           0       12.802884    2.674427    5.465996
     70          1           0       13.890177    3.849066    6.211571
     71          1           0       14.556408    2.460269    5.338147
     72          6           0       12.640118    5.085459    4.047448
     73          1           0       11.651550    4.619541    4.131799
     74          1           0       12.751421    5.770017    4.896150
     75          1           0       12.649264    5.686422    3.130501
 ---------------------------------------------------------------------

 SCF Done:  E(RHF) =  -1198.92671508     A.U. after    9 cycles

 Alpha  occ. eigenvalues --  -20.56047 -20.55378 -11.28223 -11.27798 -11.25015
 Alpha  occ. eigenvalues --  -11.24472 -11.23126 -11.23071 -11.23054 -11.22707
 Alpha  occ. eigenvalues --  -11.22531 -11.22441 -11.22364 -11.22258 -11.22198
 Alpha  occ. eigenvalues --  -11.22188 -11.21962 -11.21733 -11.21515 -11.21345
 Alpha  occ. eigenvalues --  -11.21249 -11.21164 -11.21050 -11.21035 -11.20931
 Alpha  occ. eigenvalues --  -11.20899 -11.20853 -11.20830 -11.20691  -1.35428
 Alpha  occ. eigenvalues --   -1.34460  -1.15999  -1.13875  -1.09498  -1.07979
 Alpha  occ. eigenvalues --   -1.06029  -1.05670  -1.03069  -1.01612  -0.99424
 Alpha  occ. eigenvalues --   -0.97932  -0.96269  -0.92880  -0.92351  -0.92235
 Alpha  occ. eigenvalues --   -0.90827  -0.90664  -0.86482  -0.84409  -0.83048
 Alpha  occ. eigenvalues --   -0.82601  -0.79172  -0.78138  -0.77020  -0.74516
 Alpha  occ. eigenvalues --   -0.72887  -0.71543  -0.69787  -0.67642  -0.66591
 Alpha  occ. eigenvalues --   -0.64503  -0.64162  -0.63933  -0.63344  -0.62455
 Alpha  occ. eigenvalues --   -0.62022  -0.61299  -0.60846  -0.60689  -0.59150
 Alpha  occ. eigenvalues --   -0.58722  -0.58399  -0.57754  -0.56942  -0.56574
 Alpha  occ. eigenvalues --   -0.56204  -0.55782  -0.55433  -0.54501  -0.54396
 Alpha  occ. eigenvalues --   -0.54352  -0.53635  -0.53354  -0.52793  -0.52622
 Alpha  occ. eigenvalues --   -0.52163  -0.51683  -0.51366  -0.50798  -0.50164
 Alpha  occ. eigenvalues --   -0.48563  -0.48264  -0.48093  -0.47916  -0.47381
 Alpha  occ. eigenvalues --   -0.47036  -0.46593  -0.46241  -0.45593  -0.45233
 Alpha  occ. eigenvalues --   -0.44884  -0.44620  -0.44418  -0.43443  -0.43340
 Alpha  occ. eigenvalues --   -0.42822  -0.42646  -0.42255  -0.41566  -0.40027
 Alpha  occ. eigenvalues --   -0.38346  -0.34565
 Alpha virt. eigenvalues --    0.16203   0.20468   0.21293   0.21446   0.22347
 Alpha virt. eigenvalues --    0.22983   0.24030   0.24439   0.24512   0.25235
 Alpha virt. eigenvalues --    0.25572   0.26062   0.26667   0.27136   0.27603

 Mulliken atomic charges:
              1
     1  O   -0.768553
     2  H    0.433663
     3  O   -0.758643
     4  H    0.428728
     5  C   -0.028211
     6  C   -0.144874
     7  H    0.175158
     8  C   -0.187684
     9  H    0.163051
    10  C   -0.163673
    11  H    0.147614
    12  C   -0.141965
    13  H    0.157592
    14  C   -0.298063
    15  H    0.152185
    16  H    0.164019
    17  C   -0.040206
    18  C   -0.326699
    19  H    0.188902
    20  H    0.150520
    21  C   -0.326923
    22  H    0.164810
    23  H    0.164660
    24  C   -0.335305
    25  H    0.158234
    26  H    0.168437
    27  C    0.176697
    28  H    0.180287
    29  C   -0.147163
    30  H    0.156110
    31  C   -0.489766
    32  H    0.159975
    33  H    0.165942
    34  H    0.161765
    35  C    0.073047
    36  C   -0.324149
    37  H    0.161621
    38  H    0.174689
    39  C   -0.286574
    40  H    0.192119
    41  C   -0.480701
    42  H    0.167415
    43  H    0.162769
    44  H    0.171219
    45  C   -0.367190
    46  H    0.194091
    47  H    0.155291
    48  C   -0.340893
    49  H    0.145592
    50  H    0.184010
    51  C   -0.309083
    52  H    0.151790
    53  H    0.161216
    54  C    0.194407
    55  H    0.171216
    56  C   -0.485773
    57  H    0.156696
    58  H    0.157213
    59  H    0.160593
    60  C   -0.321896
    61  H    0.160847
    62  H    0.159910
    63  C   -0.300005
    64  H    0.151422
    65  H    0.150665
    66  C   -0.146076
    67  H    0.154993
    68  C   -0.476015
    69  H    0.155439
    70  H    0.157990
    71  H    0.156398
    72  C   -0.476282
    73  H    0.155894
    74  H    0.158007
    75  H    0.157461
 Sum of Mulliken atomic charges =   0.00000

 Dipole moment (field-independent basis, Debye):
    X=              0.3309    Y=             -2.5315    Z=             -0.4064  Tot=              2.5851
 Quadrupole moment (field-independent basis, Debye-Ang):
   XX=           -194.9913   YY=           -192.4050   ZZ=           -183.4690
   XY=            -10.7028   XZ=              1.0425   YZ=              1.9222

 Normal termination of Gaussian 09 at Thu May 18 13:57:40 2017.
