 Gaussian 09, Revision C.01,
 Gaussian 09:  EM64L-G09RevC.01 23-Sep-2011

 ----------------------------------------------------------------------
 #P HF/6-31G* SCF(Conver=6) NoSymm Test Pop=mk IOp(6/33=2) GFInput GFPr
 int
 ----------------------------------------------------------------------

 (Enter /scratch/michal/g09/l101.exe)
 ----------------------------------------------
 MEP - Input generated by R.E.D.-III.x MOLECULE
 ----------------------------------------------
 Charge =  0 Multiplicity = 1

                          Input orientation:
 ---------------------------------------------------------------------
 Center     Atomic      Atomic             Coordinates (Angstroms)
 Number     Number       Type             X           Y           Z
 ---------------------------------------------------------------------
      1          8           0        0.000000    0.000000    0.000000
      2          1           0       -0.473401    0.454745   -0.709433
      3          8           0       -3.268592    5.867528    0.000000
      4          1           0       -2.968867    6.553074    0.613480
      5          6           0        4.183703    1.136364   -0.371947
      6          6           0        2.796493    0.580834    0.056090
      7          1           0        2.351500    0.166564   -0.859853
      8          6           0        1.803074    1.632109    0.565970
      9          1           0        2.195642    2.079933    1.490520
     10          6           0        1.599722    2.745722   -0.492124
     11          1           0        1.067997    2.269603   -1.332794
     12          6           0        4.893711   -0.201740   -0.781375
     13          1           0        4.450052   -0.497669   -1.745311
     14          6           0        3.913233    2.147193   -1.505666
     15          1           0        3.486378    1.606694   -2.362762
     16          1           0        4.834486    2.617954   -1.862862
     17          6           0        0.657040    3.891006    0.018971
     18          6           0        3.122365   -0.621725    0.951824
     19          1           0        2.299094   -1.340709    0.984669
     20          1           0        3.313522   -0.302283    1.984360
     21          6           0        2.942511    3.260678   -1.061736
     22          1           0        3.448421    3.881533   -0.315116
     23          1           0        2.751413    3.917031   -1.918641
     24          6           0        4.403486   -1.218062    0.306952
     25          1           0        5.184790   -1.375146    1.060469
     26          1           0        4.201530   -2.197524   -0.136354
     27          6           0        0.450369    0.995453    0.949122
     28          1           0        0.585461    0.422535    1.873723
     29          6           0        6.432767   -0.230748   -0.971547
     30          1           0        6.896410    0.000000    0.000000
     31          6           0        4.942851    1.808606    0.794928
     32          1           0        4.371593    2.621206    1.251157
     33          1           0        5.180610    1.096306    1.590771
     34          1           0        5.889591    2.235710    0.447709
     35          6           0       -0.560896    3.299393    0.740854
     36          6           0        0.149751    4.706102   -1.210780
     37          1           0       -0.201979    3.996332   -1.972484
     38          1           0        0.990147    5.247840   -1.657825
     39          6           0       -0.626185    2.021843    1.150731
     40          1           0       -1.533437    1.665394    1.637725
     41          6           0        1.392400    4.840811    1.003518
     42          1           0        2.158059    5.430515    0.490559
     43          1           0        0.702628    5.547331    1.471790
     44          1           0        1.874723    4.279804    1.809644
     45          6           0       -1.726473    4.236741    0.998310
     46          1           0       -2.570585    3.683585    1.421643
     47          1           0       -1.438337    4.992805    1.746108
     48          6           0       -0.987997    5.693803   -0.910621
     49          1           0       -0.638664    6.490291   -0.237091
     50          1           0       -1.311928    6.184932   -1.835197
     51          6           0        6.894534   -1.655530   -1.367879
     52          1           0        6.454971   -2.382386   -0.674829
     53          1           0        6.479906   -1.891426   -2.358776
     54          6           0       -2.177852    4.982422   -0.266836
     55          1           0       -2.590349    4.256932   -0.978839
     56          6           0        6.939828    0.800609   -1.994909
     57          1           0        6.451228    0.660776   -2.967625
     58          1           0        8.018875    0.707525   -2.149449
     59          1           0        6.752783    1.827398   -1.673128
     60          6           0        8.417334   -1.873977   -1.369204
     61          1           0        8.890146   -1.290011   -2.167199
     62          1           0        8.828492   -1.482842   -0.427587
     63          6           0        8.840267   -3.349527   -1.494071
     64          1           0        8.424879   -3.905209   -0.640898
     65          1           0        9.934059   -3.411812   -1.392914
     66          6           0        8.434614   -4.078865   -2.792634
     67          1           0        7.340146   -4.031812   -2.885651
     68          6           0        8.826129   -5.563085   -2.711787
     69          1           0        9.914247   -5.676227   -2.621581
     70          1           0        8.509009   -6.108171   -3.608213
     71          1           0        8.368148   -6.050369   -1.843317
     72          6           0        9.042842   -3.428718   -4.045440
     73          1           0       10.139370   -3.428851   -3.990785
     74          1           0        8.755918   -3.977812   -4.949512
     75          1           0        8.715894   -2.391649   -4.173142
 ---------------------------------------------------------------------

 SCF Done:  E(RHF) =  -1198.92722226     A.U. after    9 cycles

 Alpha  occ. eigenvalues --  -20.56051 -20.55383 -11.28226 -11.27806 -11.25017
 Alpha  occ. eigenvalues --  -11.24476 -11.23122 -11.23073 -11.23059 -11.22710
 Alpha  occ. eigenvalues --  -11.22574 -11.22446 -11.22281 -11.22263 -11.22238
 Alpha  occ. eigenvalues --  -11.22202 -11.21962 -11.21859 -11.21518 -11.21442
 Alpha  occ. eigenvalues --  -11.21386 -11.21195 -11.21064 -11.21044 -11.20937
 Alpha  occ. eigenvalues --  -11.20932 -11.20914 -11.20787 -11.20674  -1.35432
 Alpha  occ. eigenvalues --   -1.34466  -1.16002  -1.13867  -1.09621  -1.08051
 Alpha  occ. eigenvalues --   -1.06034  -1.05710  -1.03079  -1.01662  -0.99476
 Alpha  occ. eigenvalues --   -0.97974  -0.96260  -0.92898  -0.92382  -0.92289
 Alpha  occ. eigenvalues --   -0.90922  -0.90629  -0.86485  -0.84023  -0.82608
 Alpha  occ. eigenvalues --   -0.82495  -0.79251  -0.78303  -0.77167  -0.74669
 Alpha  occ. eigenvalues --   -0.73642  -0.71813  -0.69775  -0.67619  -0.66583
 Alpha  occ. eigenvalues --   -0.64809  -0.64260  -0.63922  -0.63499  -0.62336
 Alpha  occ. eigenvalues --   -0.61534  -0.61260  -0.61027  -0.60390  -0.59247
 Alpha  occ. eigenvalues --   -0.58618  -0.58185  -0.57630  -0.56804  -0.56577
 Alpha  occ. eigenvalues --   -0.56213  -0.55755  -0.55417  -0.54929  -0.54389
 Alpha  occ. eigenvalues --   -0.54065  -0.53910  -0.53357  -0.52980  -0.52890
 Alpha  occ. eigenvalues --   -0.52486  -0.52038  -0.50973  -0.50179  -0.49717
 Alpha  occ. eigenvalues --   -0.49028  -0.48352  -0.48072  -0.47886  -0.47341
 Alpha  occ. eigenvalues --   -0.46959  -0.46780  -0.46045  -0.45614  -0.45448
 Alpha  occ. eigenvalues --   -0.45122  -0.44544  -0.44234  -0.43448  -0.43331
 Alpha  occ. eigenvalues --   -0.43126  -0.42808  -0.42418  -0.41614  -0.40039
 Alpha  occ. eigenvalues --   -0.38295  -0.34568
 Alpha virt. eigenvalues --    0.16197   0.20571   0.21347   0.21635   0.22515
 Alpha virt. eigenvalues --    0.22921   0.24118   0.24500   0.24937   0.25264
 Alpha virt. eigenvalues --    0.25968   0.26222   0.26437   0.27142   0.27291

 Mulliken atomic charges:
              1
     1  O   -0.768468
     2  H    0.433676
     3  O   -0.758640
     4  H    0.428732
     5  C   -0.029898
     6  C   -0.145215
     7  H    0.175554
     8  C   -0.187660
     9  H    0.163019
    10  C   -0.163603
    11  H    0.147632
    12  C   -0.135968
    13  H    0.153235
    14  C   -0.298249
    15  H    0.152531
    16  H    0.164069
    17  C   -0.040229
    18  C   -0.326428
    19  H    0.188718
    20  H    0.150425
    21  C   -0.326790
    22  H    0.164720
    23  H    0.164700
    24  C   -0.335879
    25  H    0.157389
    26  H    0.169640
    27  C    0.176519
    28  H    0.180262
    29  C   -0.148923
    30  H    0.151707
    31  C   -0.488914
    32  H    0.159676
    33  H    0.165910
    34  H    0.162197
    35  C    0.073012
    36  C   -0.324174
    37  H    0.161656
    38  H    0.174698
    39  C   -0.286493
    40  H    0.192108
    41  C   -0.480675
    42  H    0.167374
    43  H    0.162786
    44  H    0.171211
    45  C   -0.367160
    46  H    0.194095
    47  H    0.155288
    48  C   -0.340915
    49  H    0.145595
    50  H    0.184012
    51  C   -0.311605
    52  H    0.165729
    53  H    0.151242
    54  C    0.194412
    55  H    0.171221
    56  C   -0.485528
    57  H    0.152085
    58  H    0.164346
    59  H    0.161200
    60  C   -0.312950
    61  H    0.158414
    62  H    0.153917
    63  C   -0.298392
    64  H    0.151620
    65  H    0.150287
    66  C   -0.151988
    67  H    0.157790
    68  C   -0.471886
    69  H    0.151895
    70  H    0.157956
    71  H    0.157889
    72  C   -0.476703
    73  H    0.151643
    74  H    0.158168
    75  H    0.161371
 Sum of Mulliken atomic charges =   0.00000

 Dipole moment (field-independent basis, Debye):
    X=              1.4279    Y=              2.1050    Z=              0.3997  Tot=              2.5748
 Quadrupole moment (field-independent basis, Debye-Ang):
   XX=           -196.9858   YY=           -179.5426   ZZ=           -183.0575
   XY=             10.2787   XZ=             -0.6330   YZ=              4.3620

 Normal termination of Gaussian 09 at Thu May 18 14:35:11 2017.
