 Gaussian 09, Revision C.01,
 Gaussian 09:  EM64L-G09RevC.01 23-Sep-2011

 ----------------------------------------------------------------------
 #P HF/6-31G* SCF(Conver=6) NoSymm Test Pop=mk IOp(6/33=2) GFInput GFPr
 int
 ----------------------------------------------------------------------

 (Enter /scratch/michal/g09/l101.exe)
 ----------------------------------------------
 MEP - Input generated by R.E.D.-III.x MOLECULE
 ----------------------------------------------
 Charge =  0 Multiplicity = 1

                          Input orientation:
 ---------------------------------------------------------------------
 Center     Atomic      Atomic             Coordinates (Angstroms)
 Number     Number       Type             X           Y           Z
 ---------------------------------------------------------------------
      1          8           0        0.000000    0.000000    0.000000
      2          1           0       -0.470999    0.454670   -0.711107
      3          8           0       -3.270136    5.865704    0.000000
      4          1           0       -2.970278    6.551708    0.612899
      5          6           0        4.183776    1.137764   -0.375956
      6          6           0        2.797100    0.581496    0.052595
      7          1           0        2.351777    0.166820   -0.863014
      8          6           0        1.803797    1.632627    0.562980
      9          1           0        2.197515    2.080682    1.486845
     10          6           0        1.599125    2.745851   -0.495330
     11          1           0        1.066694    2.269234   -1.335284
     12          6           0        4.895028   -0.199856   -0.785079
     13          1           0        4.452597   -0.496048   -1.749493
     14          6           0        3.912568    2.147819   -1.510183
     15          1           0        3.485697    1.606486   -2.366741
     16          1           0        4.833557    2.618670   -1.868018
     17          6           0        0.656788    3.891230    0.016151
     18          6           0        3.124108   -0.620556    0.948564
     19          1           0        2.301003   -1.339675    0.982505
     20          1           0        3.316094   -0.300548    1.980772
     21          6           0        2.941286    3.260935   -1.066580
     22          1           0        3.447501    3.882819   -0.321013
     23          1           0        2.749083    3.916398   -1.923929
     24          6           0        4.404699   -1.216879    0.302640
     25          1           0        5.186390   -1.375455    1.055439
     26          1           0        4.201339   -2.195622   -0.141518
     27          6           0        0.451580    0.995982    0.947951
     28          1           0        0.587774    0.423430    1.872610
     29          6           0        6.434517   -0.226524   -0.973596
     30          1           0        6.895793    0.000000    0.000000
     31          6           0        4.942372    1.810859    0.790943
     32          1           0        4.371603    2.624578    1.245906
     33          1           0        5.178856    1.099238    1.587788
     34          1           0        5.889751    2.236774    0.444234
     35          6           0       -0.560048    3.299805    0.739890
     36          6           0        0.147695    4.705341   -1.213506
     37          1           0       -0.204396    3.994863   -1.974376
     38          1           0        0.987270    5.247372   -1.661741
     39          6           0       -0.624812    2.022415    1.150282
     40          1           0       -1.531631    1.666065    1.638142
     41          6           0        1.393499    4.841775    0.998976
     42          1           0        2.158849    5.430643    0.484627
     43          1           0        0.704692    5.549189    1.467344
     44          1           0        1.876367    4.281251    1.805090
     45          6           0       -1.725925    4.236653    0.997999
     46          1           0       -2.569190    3.683173    1.422606
     47          1           0       -1.437631    4.993421    1.744988
     48          6           0       -0.990374    5.692574   -0.912780
     49          1           0       -0.640778    6.489760   -0.240210
     50          1           0       -1.315549    6.182863   -1.837366
     51          6           0        6.898879   -1.648085   -1.377900
     52          1           0        6.427385   -2.384460   -0.717380
     53          1           0        6.525473   -1.866300   -2.390417
     54          6           0       -2.179116    4.981025   -0.267225
     55          1           0       -2.591920    4.254692   -0.978189
     56          6           0        6.940701    0.810851   -1.991495
     57          1           0        6.444860    0.681643   -2.961918
     58          1           0        8.018022    0.712877   -2.154950
     59          1           0        6.762146    1.836169   -1.660078
     60          6           0        8.417406   -1.887074   -1.334092
     61          1           0        8.924743   -1.228883   -2.048405
     62          1           0        8.789671   -1.610165   -0.338255
     63          6           0        8.781862   -3.349264   -1.639553
     64          1           0        8.367400   -3.615730   -2.622719
     65          1           0        8.273151   -3.997802   -0.911717
     66          6           0       10.287156   -3.704048   -1.636125
     67          1           0       10.343412   -4.778933   -1.863643
     68          6           0       10.940811   -3.499534   -0.259353
     69          1           0       10.981408   -2.439131    0.015230
     70          1           0       11.969695   -3.877259   -0.256087
     71          1           0       10.388722   -4.027704    0.527024
     72          6           0       11.073212   -2.969698   -2.735086
     73          1           0       11.120146   -1.890787   -2.547331
     74          1           0       12.104702   -3.336518   -2.787525
     75          1           0       10.615550   -3.118297   -3.720258
 ---------------------------------------------------------------------

 SCF Done:  E(RHF) =  -1198.92705465     A.U. after    9 cycles

 Alpha  occ. eigenvalues --  -20.56041 -20.55371 -11.28215 -11.27793 -11.25005
 Alpha  occ. eigenvalues --  -11.24460 -11.23113 -11.23063 -11.23047 -11.22700
 Alpha  occ. eigenvalues --  -11.22556 -11.22433 -11.22432 -11.22252 -11.22206
 Alpha  occ. eigenvalues --  -11.22188 -11.21948 -11.21839 -11.21500 -11.21404
 Alpha  occ. eigenvalues --  -11.21301 -11.21190 -11.21040 -11.21028 -11.20957
 Alpha  occ. eigenvalues --  -11.20942 -11.20922 -11.20760 -11.20657  -1.35423
 Alpha  occ. eigenvalues --   -1.34453  -1.15987  -1.13848  -1.09536  -1.08033
 Alpha  occ. eigenvalues --   -1.06024  -1.05731  -1.03063  -1.01668  -0.99467
 Alpha  occ. eigenvalues --   -0.97953  -0.96245  -0.92875  -0.92365  -0.92309
 Alpha  occ. eigenvalues --   -0.90877  -0.90618  -0.86474  -0.84284  -0.82711
 Alpha  occ. eigenvalues --   -0.82593  -0.79071  -0.78057  -0.77085  -0.74536
 Alpha  occ. eigenvalues --   -0.73579  -0.71767  -0.69763  -0.67614  -0.66573
 Alpha  occ. eigenvalues --   -0.64625  -0.64240  -0.63830  -0.63314  -0.62392
 Alpha  occ. eigenvalues --   -0.62205  -0.61250  -0.60944  -0.60204  -0.59288
 Alpha  occ. eigenvalues --   -0.58668  -0.58377  -0.58027  -0.57155  -0.56579
 Alpha  occ. eigenvalues --   -0.56037  -0.55769  -0.55566  -0.54747  -0.54423
 Alpha  occ. eigenvalues --   -0.54286  -0.53580  -0.53223  -0.52815  -0.52512
 Alpha  occ. eigenvalues --   -0.52033  -0.51499  -0.50897  -0.50749  -0.50600
 Alpha  occ. eigenvalues --   -0.48371  -0.48322  -0.48171  -0.47884  -0.47376
 Alpha  occ. eigenvalues --   -0.46849  -0.46601  -0.45899  -0.45521  -0.45476
 Alpha  occ. eigenvalues --   -0.45008  -0.44802  -0.44351  -0.43841  -0.43313
 Alpha  occ. eigenvalues --   -0.43183  -0.42762  -0.42254  -0.41548  -0.39998
 Alpha  occ. eigenvalues --   -0.38244  -0.34554
 Alpha virt. eigenvalues --    0.16213   0.20596   0.21358   0.21734   0.22306
 Alpha virt. eigenvalues --    0.22872   0.24175   0.24550   0.24980   0.25268
 Alpha virt. eigenvalues --    0.25842   0.26133   0.26500   0.27067   0.27146

 Mulliken atomic charges:
              1
     1  O   -0.768369
     2  H    0.433630
     3  O   -0.758660
     4  H    0.428717
     5  C   -0.029954
     6  C   -0.145090
     7  H    0.175431
     8  C   -0.187754
     9  H    0.163049
    10  C   -0.163590
    11  H    0.147520
    12  C   -0.136143
    13  H    0.153517
    14  C   -0.298178
    15  H    0.152504
    16  H    0.164193
    17  C   -0.040183
    18  C   -0.326448
    19  H    0.188717
    20  H    0.150353
    21  C   -0.326822
    22  H    0.164687
    23  H    0.164654
    24  C   -0.336049
    25  H    0.157281
    26  H    0.169974
    27  C    0.176351
    28  H    0.180282
    29  C   -0.148905
    30  H    0.151612
    31  C   -0.489017
    32  H    0.159640
    33  H    0.165879
    34  H    0.162245
    35  C    0.072901
    36  C   -0.324162
    37  H    0.161645
    38  H    0.174683
    39  C   -0.286146
    40  H    0.192082
    41  C   -0.480677
    42  H    0.167378
    43  H    0.162761
    44  H    0.171203
    45  C   -0.367129
    46  H    0.194073
    47  H    0.155237
    48  C   -0.340885
    49  H    0.145569
    50  H    0.183982
    51  C   -0.307367
    52  H    0.166404
    53  H    0.147712
    54  C    0.194406
    55  H    0.171219
    56  C   -0.484772
    57  H    0.152701
    58  H    0.163130
    59  H    0.160817
    60  C   -0.314668
    61  H    0.158854
    62  H    0.153696
    63  C   -0.300861
    64  H    0.151747
    65  H    0.151649
    66  C   -0.146333
    67  H    0.155425
    68  C   -0.476111
    69  H    0.155891
    70  H    0.157936
    71  H    0.156834
    72  C   -0.476205
    73  H    0.155210
    74  H    0.158207
    75  H    0.156890
 Sum of Mulliken atomic charges =   0.00000

 Dipole moment (field-independent basis, Debye):
    X=              1.5010    Y=              1.9872    Z=              0.3435  Tot=              2.5140
 Quadrupole moment (field-independent basis, Debye-Ang):
   XX=           -196.4885   YY=           -178.2304   ZZ=           -182.8980
   XY=              8.7452   XZ=             -1.4177   YZ=              4.7246

 Normal termination of Gaussian 09 at Thu May 18 12:28:03 2017.
