 Gaussian 09, Revision C.01,
 Gaussian 09:  EM64L-G09RevC.01 23-Sep-2011

 ----------------------------------------------------------------------
 #P HF/6-31G* SCF(Conver=6) NoSymm Test Pop=mk IOp(6/33=2) GFInput GFPr
 int
 ----------------------------------------------------------------------

 (Enter /scratch/michal/g09/l101.exe)
 ----------------------------------------------
 MEP - Input generated by R.E.D.-III.x MOLECULE
 ----------------------------------------------
 Charge =  0 Multiplicity = 1

                          Input orientation:
 ---------------------------------------------------------------------
 Center     Atomic      Atomic             Coordinates (Angstroms)
 Number     Number       Type             X           Y           Z
 ---------------------------------------------------------------------
      1          8           0        0.000000    0.000000    0.000000
      2          1           0        0.966526    0.000000    0.000000
      3          8           0        4.377984   -2.767576   -4.270527
      4          1           0        4.106852   -2.874346   -5.193165
      5          6           0       -1.251482    3.648667   -2.010009
      6          6           0       -1.156141    2.264352   -1.305654
      7          1           0       -0.467837    2.409432   -0.461545
      8          6           0       -0.539224    1.145138   -2.152996
      9          1           0       -1.194590    0.935817   -3.010577
     10          6           0        0.860596    1.564651   -2.672028
     11          1           0        1.511422    1.605351   -1.782684
     12          6           0       -1.919303    4.463723   -0.848479
     13          1           0       -1.141825    4.516914   -0.074448
     14          6           0        0.186826    4.053061   -2.386436
     15          1           0        0.772665    4.184569   -1.465972
     16          1           0        0.208279    5.014262   -2.913598
     17          6           0        1.493797    0.484717   -3.618061
     18          6           0       -2.549348    2.049417   -0.689662
     19          1           0       -2.512983    1.371872    0.168014
     20          1           0       -3.237707    1.607087   -1.421232
     21          6           0        0.862322    2.989770   -3.276527
     22          1           0        0.359167    2.982420   -4.248765
     23          1           0        1.893912    3.303590   -3.473487
     24          6           0       -3.003748    3.484346   -0.295439
     25          1           0       -3.990850    3.707592   -0.712899
     26          1           0       -3.097500    3.598076    0.790053
     27          6           0       -0.448978   -0.178379   -1.364247
     28          1           0       -1.461114   -0.582814   -1.248414
     29          6           0       -2.435877    5.924789   -0.990613
     30          1           0       -2.868921    6.141156    0.000000
     31          6           0       -2.139143    3.597425   -3.275338
     32          1           0       -1.844779    2.790059   -3.951008
     33          1           0       -3.194074    3.444528   -3.033801
     34          1           0       -2.063229    4.530742   -3.841076
     35          6           0        1.287928   -0.921273   -3.038772
     36          6           0        3.027545    0.750833   -3.723837
     37          1           0        3.421364    0.899716   -2.708738
     38          1           0        3.196061    1.689989   -4.261540
     39          6           0        0.418625   -1.192333   -2.051232
     40          1           0        0.342892   -2.212043   -1.674701
     41          6           0        0.861145    0.525149   -5.035846
     42          1           0        1.134086    1.441834   -5.567073
     43          1           0        1.196346   -0.314231   -5.650116
     44          1           0       -0.230456    0.470780   -4.984628
     45          6           0        2.117204   -2.039381   -3.643441
     46          1           0        1.962141   -2.968911   -3.086988
     47          1           0        1.786710   -2.231686   -4.676686
     48          6           0        3.836722   -0.369311   -4.395311
     49          1           0        3.550126   -0.470590   -5.452521
     50          1           0        4.903850   -0.120196   -4.382490
     51          6           0       -1.329878    6.984719   -1.209136
     52          1           0       -0.827765    6.805122   -2.169180
     53          1           0       -1.826972    7.959828   -1.315239
     54          6           0        3.616346   -1.706556   -3.688713
     55          1           0        3.996067   -1.636888   -2.661876
     56          6           0       -3.570501    6.166346   -2.006887
     57          1           0       -3.201477    6.194545   -3.036302
     58          1           0       -4.042300    7.135130   -1.806769
     59          1           0       -4.355375    5.406371   -1.954106
     60          6           0       -0.279028    7.109257   -0.094771
     61          1           0       -0.796810    7.229743    0.866592
     62          1           0        0.300760    6.182692   -0.019503
     63          6           0        0.674347    8.293236   -0.326013
     64          1           0        0.078580    9.214546   -0.399814
     65          1           0        1.158561    8.167843   -1.305490
     66          6           0        1.777242    8.512613    0.735701
     67          1           0        2.344030    9.394926    0.403162
     68          6           0        2.770739    7.341251    0.810954
     69          1           0        2.295734    6.432026    1.197101
     70          1           0        3.606222    7.581180    1.478537
     71          1           0        3.188177    7.108033   -0.175732
     72          6           0        1.205075    8.840950    2.124789
     73          1           0        0.674719    7.984278    2.556333
     74          1           0        2.005725    9.113938    2.821683
     75          1           0        0.501996    9.680977    2.078534
 ---------------------------------------------------------------------

 SCF Done:  E(RHF) =  -1198.92091755     A.U. after    9 cycles

 Alpha  occ. eigenvalues --  -20.56053 -20.55383 -11.28229 -11.27806 -11.25032
 Alpha  occ. eigenvalues --  -11.24484 -11.23164 -11.23082 -11.23061 -11.22716
 Alpha  occ. eigenvalues --  -11.22563 -11.22522 -11.22450 -11.22381 -11.22265
 Alpha  occ. eigenvalues --  -11.22204 -11.21999 -11.21785 -11.21618 -11.21505
 Alpha  occ. eigenvalues --  -11.21373 -11.21315 -11.21064 -11.21041 -11.20993
 Alpha  occ. eigenvalues --  -11.20990 -11.20792 -11.20749 -11.20740  -1.35434
 Alpha  occ. eigenvalues --   -1.34466  -1.15998  -1.13829  -1.09502  -1.08029
 Alpha  occ. eigenvalues --   -1.06046  -1.05729  -1.03098  -1.01665  -0.99634
 Alpha  occ. eigenvalues --   -0.97942  -0.96311  -0.92636  -0.92390  -0.92347
 Alpha  occ. eigenvalues --   -0.91592  -0.90386  -0.86488  -0.83872  -0.83037
 Alpha  occ. eigenvalues --   -0.82531  -0.79323  -0.78543  -0.77032  -0.74445
 Alpha  occ. eigenvalues --   -0.73439  -0.71526  -0.69731  -0.67590  -0.66353
 Alpha  occ. eigenvalues --   -0.64659  -0.64182  -0.63872  -0.63368  -0.62514
 Alpha  occ. eigenvalues --   -0.62339  -0.61184  -0.60996  -0.59751  -0.59390
 Alpha  occ. eigenvalues --   -0.59056  -0.58468  -0.57640  -0.57430  -0.56301
 Alpha  occ. eigenvalues --   -0.56000  -0.55954  -0.55418  -0.55100  -0.54373
 Alpha  occ. eigenvalues --   -0.54226  -0.53794  -0.53667  -0.52884  -0.52687
 Alpha  occ. eigenvalues --   -0.52112  -0.51513  -0.50719  -0.50406  -0.50105
 Alpha  occ. eigenvalues --   -0.49033  -0.48569  -0.48104  -0.47725  -0.47609
 Alpha  occ. eigenvalues --   -0.47150  -0.46762  -0.46308  -0.45694  -0.45213
 Alpha  occ. eigenvalues --   -0.45140  -0.44851  -0.44425  -0.43925  -0.43165
 Alpha  occ. eigenvalues --   -0.42880  -0.42459  -0.41893  -0.41436  -0.40001
 Alpha  occ. eigenvalues --   -0.38323  -0.34574
 Alpha virt. eigenvalues --    0.16191   0.20240   0.20991   0.21523   0.22008
 Alpha virt. eigenvalues --    0.22804   0.23980   0.24285   0.24596   0.24955
 Alpha virt. eigenvalues --    0.25242   0.26068   0.26770   0.27150   0.27846

 Mulliken atomic charges:
              1
     1  O   -0.768546
     2  H    0.433695
     3  O   -0.758626
     4  H    0.428738
     5  C   -0.022835
     6  C   -0.148886
     7  H    0.176494
     8  C   -0.187902
     9  H    0.163058
    10  C   -0.163621
    11  H    0.147645
    12  C   -0.156547
    13  H    0.161710
    14  C   -0.301907
    15  H    0.153668
    16  H    0.161688
    17  C   -0.040457
    18  C   -0.326180
    19  H    0.187756
    20  H    0.150945
    21  C   -0.326744
    22  H    0.166212
    23  H    0.164625
    24  C   -0.327935
    25  H    0.158388
    26  H    0.165592
    27  C    0.177389
    28  H    0.180434
    29  C   -0.141521
    30  H    0.152123
    31  C   -0.486552
    32  H    0.158802
    33  H    0.167113
    34  H    0.160457
    35  C    0.073197
    36  C   -0.324216
    37  H    0.161698
    38  H    0.174630
    39  C   -0.287056
    40  H    0.192193
    41  C   -0.480375
    42  H    0.167448
    43  H    0.162745
    44  H    0.171248
    45  C   -0.367221
    46  H    0.194118
    47  H    0.155332
    48  C   -0.340871
    49  H    0.145584
    50  H    0.184043
    51  C   -0.300054
    52  H    0.152222
    53  H    0.152315
    54  C    0.194415
    55  H    0.171224
    56  C   -0.482411
    57  H    0.155955
    58  H    0.157850
    59  H    0.160566
    60  C   -0.319358
    61  H    0.154956
    62  H    0.162383
    63  C   -0.300550
    64  H    0.151512
    65  H    0.150183
    66  C   -0.146197
    67  H    0.155192
    68  C   -0.476464
    69  H    0.155483
    70  H    0.158747
    71  H    0.155645
    72  C   -0.476340
    73  H    0.156869
    74  H    0.158202
    75  H    0.156888
 Sum of Mulliken atomic charges =   0.00000

 Dipole moment (field-independent basis, Debye):
    X=              0.0481    Y=              1.0929    Z=             -2.3301  Tot=              2.5741
 Quadrupole moment (field-independent basis, Debye-Ang):
   XX=           -194.1235   YY=           -189.0794   ZZ=           -173.6868
   XY=              8.5564   XZ=              0.1535   YZ=             -0.9801

 Normal termination of Gaussian 09 at Thu May 18 13:32:58 2017.
