 Gaussian 09, Revision C.01,
 Gaussian 09:  EM64L-G09RevC.01 23-Sep-2011

 ----------------------------------------------------------------------
 #P HF/6-31G* SCF(Conver=6) NoSymm Test Pop=mk IOp(6/33=2) GFInput GFPr
 int
 ----------------------------------------------------------------------

 (Enter /scratch/michal/g09/l101.exe)
 ----------------------------------------------
 MEP - Input generated by R.E.D.-III.x MOLECULE
 ----------------------------------------------
 Charge =  0 Multiplicity = 1

                          Input orientation:
 ---------------------------------------------------------------------
 Center     Atomic      Atomic             Coordinates (Angstroms)
 Number     Number       Type             X           Y           Z
 ---------------------------------------------------------------------
      1          8           0        0.000000    0.000000    0.000000
      2          1           0       -0.466678    0.461413   -0.709565
      3          8           0       -3.210634    5.896994    0.000000
      4          1           0       -2.905983    6.579399    0.614554
      5          6           0        4.195477    1.096052   -0.350871
      6          6           0        2.801866    0.551825    0.069185
      7          1           0        2.356608    0.147171   -0.850837
      8          6           0        1.817309    1.611656    0.578181
      9          1           0        2.210760    2.053366    1.505268
     10          6           0        1.629983    2.729385   -0.479166
     11          1           0        1.097307    2.259493   -1.322723
     12          6           0        4.891128   -0.248536   -0.759933
     13          1           0        4.430849   -0.540701   -1.715256
     14          6           0        3.942541    2.111034   -1.484140
     15          1           0        3.515697    1.577068   -2.345340
     16          1           0        4.871970    2.572466   -1.833243
     17          6           0        0.695959    3.883027    0.029384
     18          6           0        3.110861   -0.660076    0.960471
     19          1           0        2.285388   -1.377223    0.970883
     20          1           0        3.282363   -0.350916    1.999618
     21          6           0        2.979893    3.232857   -1.043150
     22          1           0        3.488564    3.848356   -0.294031
     23          1           0        2.797697    3.891860   -1.899957
     24          6           0        4.405328   -1.252925    0.336974
     25          1           0        5.180308   -1.383973    1.101552
     26          1           0        4.226655   -2.243922   -0.091906
     27          6           0        0.456610    0.988068    0.953906
     28          1           0        0.582158    0.411112    1.877335
     29          6           0        6.426932   -0.284509   -0.957653
     30          1           0        6.887095    0.000000    0.000000
     31          6           0        4.956827    1.760692    0.818605
     32          1           0        4.392958    2.580408    1.271281
     33          1           0        5.183467    1.047251    1.616690
     34          1           0        5.909422    2.177303    0.473744
     35          6           0       -0.529987    3.302508    0.746725
     36          6           0        0.199871    4.703076   -1.201742
     37          1           0       -0.156240    3.996610   -1.964469
     38          1           0        1.046546    5.236971   -1.646353
     39          6           0       -0.609957    2.024994    1.154055
     40          1           0       -1.522536    1.677181    1.637306
     41          6           0        1.437009    4.825707    1.016421
     42          1           0        2.209814    5.408029    0.505840
     43          1           0        0.752642    5.538851    1.482586
     44          1           0        1.911422    4.259938    1.823890
     45          6           0       -1.686949    4.251019    1.001904
     46          1           0       -2.537470    3.705873    1.422781
     47          1           0       -1.393376    5.003861    1.750797
     48          6           0       -0.929445    5.701441   -0.904695
     49          1           0       -0.574436    6.494544   -0.230162
     50          1           0       -1.246116    6.195652   -1.830140
     51          6           0        6.946819   -1.716452   -1.256250
     52          1           0        8.044935   -1.669971   -1.288311
     53          1           0        6.702419   -2.375176   -0.413547
     54          6           0       -2.127785    5.001446   -0.264197
     55          1           0       -2.545440    4.280151   -0.977455
     56          6           0        6.939970    0.704430   -2.021341
     57          1           0        6.404167    0.598424   -2.971284
     58          1           0        8.004734    0.534144   -2.220538
     59          1           0        6.833121    1.743286   -1.698946
     60          6           0        6.449693   -2.374005   -2.554711
     61          1           0        5.356736   -2.461953   -2.528590
     62          1           0        6.688511   -1.729423   -3.409249
     63          6           0        7.072212   -3.763741   -2.768087
     64          1           0        6.841654   -4.389845   -1.893869
     65          1           0        8.166856   -3.659014   -2.783850
     66          6           0        6.639712   -4.529282   -4.040367
     67          1           0        7.186129   -5.483890   -4.017644
     68          6           0        7.048427   -3.806729   -5.334832
     69          1           0        6.496402   -2.868874   -5.466006
     70          1           0        6.842938   -4.431530   -6.211581
     71          1           0        8.118613   -3.568259   -5.338137
     72          6           0        5.139931   -4.868782   -4.047484
     73          1           0        4.521243   -3.967908   -4.131842
     74          1           0        4.890829   -5.516044   -4.896190
     75          1           0        4.844745   -5.392341   -3.130542
 ---------------------------------------------------------------------

 SCF Done:  E(RHF) =  -1198.92671519     A.U. after    9 cycles

 Alpha  occ. eigenvalues --  -20.56047 -20.55378 -11.28223 -11.27798 -11.25015
 Alpha  occ. eigenvalues --  -11.24472 -11.23126 -11.23071 -11.23054 -11.22707
 Alpha  occ. eigenvalues --  -11.22531 -11.22441 -11.22364 -11.22258 -11.22198
 Alpha  occ. eigenvalues --  -11.22188 -11.21962 -11.21733 -11.21515 -11.21345
 Alpha  occ. eigenvalues --  -11.21249 -11.21164 -11.21050 -11.21035 -11.20931
 Alpha  occ. eigenvalues --  -11.20899 -11.20853 -11.20830 -11.20691  -1.35428
 Alpha  occ. eigenvalues --   -1.34460  -1.15999  -1.13875  -1.09498  -1.07979
 Alpha  occ. eigenvalues --   -1.06029  -1.05670  -1.03069  -1.01612  -0.99424
 Alpha  occ. eigenvalues --   -0.97932  -0.96269  -0.92880  -0.92351  -0.92235
 Alpha  occ. eigenvalues --   -0.90827  -0.90664  -0.86482  -0.84409  -0.83048
 Alpha  occ. eigenvalues --   -0.82601  -0.79172  -0.78138  -0.77020  -0.74516
 Alpha  occ. eigenvalues --   -0.72887  -0.71543  -0.69787  -0.67642  -0.66591
 Alpha  occ. eigenvalues --   -0.64503  -0.64162  -0.63933  -0.63344  -0.62455
 Alpha  occ. eigenvalues --   -0.62022  -0.61299  -0.60846  -0.60689  -0.59150
 Alpha  occ. eigenvalues --   -0.58722  -0.58399  -0.57754  -0.56941  -0.56574
 Alpha  occ. eigenvalues --   -0.56204  -0.55782  -0.55433  -0.54501  -0.54396
 Alpha  occ. eigenvalues --   -0.54352  -0.53635  -0.53354  -0.52793  -0.52622
 Alpha  occ. eigenvalues --   -0.52163  -0.51683  -0.51366  -0.50798  -0.50164
 Alpha  occ. eigenvalues --   -0.48563  -0.48264  -0.48093  -0.47916  -0.47381
 Alpha  occ. eigenvalues --   -0.47036  -0.46593  -0.46241  -0.45593  -0.45233
 Alpha  occ. eigenvalues --   -0.44884  -0.44620  -0.44418  -0.43443  -0.43340
 Alpha  occ. eigenvalues --   -0.42822  -0.42646  -0.42255  -0.41566  -0.40027
 Alpha  occ. eigenvalues --   -0.38346  -0.34565
 Alpha virt. eigenvalues --    0.16203   0.20468   0.21293   0.21446   0.22347
 Alpha virt. eigenvalues --    0.22983   0.24030   0.24439   0.24512   0.25235
 Alpha virt. eigenvalues --    0.25572   0.26062   0.26667   0.27136   0.27603

 Mulliken atomic charges:
              1
     1  O   -0.768553
     2  H    0.433662
     3  O   -0.758643
     4  H    0.428728
     5  C   -0.028211
     6  C   -0.144874
     7  H    0.175159
     8  C   -0.187684
     9  H    0.163051
    10  C   -0.163674
    11  H    0.147614
    12  C   -0.141965
    13  H    0.157592
    14  C   -0.298063
    15  H    0.152185
    16  H    0.164019
    17  C   -0.040206
    18  C   -0.326700
    19  H    0.188903
    20  H    0.150521
    21  C   -0.326923
    22  H    0.164810
    23  H    0.164660
    24  C   -0.335305
    25  H    0.158234
    26  H    0.168437
    27  C    0.176696
    28  H    0.180287
    29  C   -0.147164
    30  H    0.156110
    31  C   -0.489766
    32  H    0.159976
    33  H    0.165942
    34  H    0.161765
    35  C    0.073047
    36  C   -0.324149
    37  H    0.161621
    38  H    0.174689
    39  C   -0.286574
    40  H    0.192118
    41  C   -0.480701
    42  H    0.167415
    43  H    0.162769
    44  H    0.171219
    45  C   -0.367190
    46  H    0.194091
    47  H    0.155291
    48  C   -0.340893
    49  H    0.145592
    50  H    0.184010
    51  C   -0.309083
    52  H    0.151790
    53  H    0.161216
    54  C    0.194407
    55  H    0.171216
    56  C   -0.485774
    57  H    0.156696
    58  H    0.157213
    59  H    0.160593
    60  C   -0.321896
    61  H    0.160847
    62  H    0.159910
    63  C   -0.300005
    64  H    0.151422
    65  H    0.150665
    66  C   -0.146076
    67  H    0.154993
    68  C   -0.476015
    69  H    0.155439
    70  H    0.157990
    71  H    0.156398
    72  C   -0.476282
    73  H    0.155893
    74  H    0.158007
    75  H    0.157461
 Sum of Mulliken atomic charges =   0.00000

 Dipole moment (field-independent basis, Debye):
    X=              1.5623    Y=              2.0191    Z=              0.4064  Tot=              2.5851
 Quadrupole moment (field-independent basis, Debye-Ang):
   XX=           -195.0442   YY=           -178.5708   ZZ=           -183.4690
   XY=              9.1157   XZ=             -1.2356   YZ=              4.5820

 Normal termination of Gaussian 09 at Thu May 18 13:20:41 2017.
