 Gaussian 09, Revision C.01,
 Gaussian 09:  EM64L-G09RevC.01 23-Sep-2011

 ----------------------------------------------------------------------
 #P HF/6-31G* SCF(Conver=6) NoSymm Test Pop=mk IOp(6/33=2) GFInput GFPr
 int
 ----------------------------------------------------------------------

 (Enter /scratch/michal/g09/l101.exe)
 ----------------------------------------------
 MEP - Input generated by R.E.D.-III.x MOLECULE
 ----------------------------------------------
 Charge =  0 Multiplicity = 1

                          Input orientation:
 ---------------------------------------------------------------------
 Center     Atomic      Atomic             Coordinates (Angstroms)
 Number     Number       Type             X           Y           Z
 ---------------------------------------------------------------------
      1          8           0        0.000000    0.000000    0.000000
      2          1           0       -0.463500    0.461251   -0.711773
      3          8           0       -3.208661    5.901074    0.000000
      4          1           0       -2.905087    6.581848    0.616898
      5          6           0        4.195133    1.097123   -0.347103
      6          6           0        2.801661    0.552492    0.073067
      7          1           0        2.357316    0.145714   -0.846409
      8          6           0        1.816279    1.612266    0.579898
      9          1           0        2.208587    2.054027    1.507437
     10          6           0        1.629069    2.729837   -0.477601
     11          1           0        1.094735    2.260427   -1.320385
     12          6           0        4.891363   -0.248736   -0.752666
     13          1           0        4.426358   -0.545715   -1.704544
     14          6           0        3.942013    2.109903   -1.482136
     15          1           0        3.515691    1.574111   -2.342472
     16          1           0        4.871230    2.571248   -1.831691
     17          6           0        0.696518    3.883925    0.032400
     18          6           0        3.110518   -0.657228    0.967488
     19          1           0        2.287167   -1.376854    0.974435
     20          1           0        3.275473   -0.346497    2.007205
     21          6           0        2.978479    3.232261   -1.043897
     22          1           0        3.486882    3.851057   -0.297285
     23          1           0        2.795288    3.888024   -1.902952
     24          6           0        4.410004   -1.247041    0.351530
     25          1           0        5.184219   -1.364987    1.118989
     26          1           0        4.239832   -2.243455   -0.067688
     27          6           0        0.455126    0.988450    0.954152
     28          1           0        0.579571    0.411725    1.877885
     29          6           0        6.425928   -0.284004   -0.958017
     30          1           0        6.886551    0.000000    0.000000
     31          6           0        4.954648    1.764443    0.822077
     32          1           0        4.390730    2.586594    1.270132
     33          1           0        5.177849    1.053628    1.623382
     34          1           0        5.908742    2.178499    0.478505
     35          6           0       -0.531094    3.303196    0.746720
     36          6           0        0.203910    4.708471   -1.197063
     37          1           0       -0.150847    4.004990   -1.963167
     38          1           0        1.052071    5.243319   -1.637664
     39          6           0       -0.611857    2.025360    1.152900
     40          1           0       -1.525216    1.677252    1.634466
     41          6           0        1.437476    4.822724    1.023218
     42          1           0        2.213232    5.404077    0.515984
     43          1           0        0.753453    5.536631    1.488655
     44          1           0        1.908011    4.254389    1.831120
     45          6           0       -1.688073    4.251996    1.001283
     46          1           0       -2.539890    3.706524    1.419109
     47          1           0       -1.395551    5.002966    1.752490
     48          6           0       -0.925354    5.706766   -0.899509
     49          1           0       -0.571354    6.497546   -0.221715
     50          1           0       -1.239481    6.204014   -1.824193
     51          6           0        6.949943   -1.724981   -1.227635
     52          1           0        8.041617   -1.668057   -1.332004
     53          1           0        6.779308   -2.313428   -0.318280
     54          6           0       -2.125616    5.005687   -0.263916
     55          1           0       -2.541861    4.286411   -0.980027
     56          6           0        6.933887    0.726061   -2.005217
     57          1           0        6.372583    0.668428   -2.943147
     58          1           0        7.989324    0.544106   -2.236897
     59          1           0        6.856800    1.754586   -1.642071
     60          6           0        6.363758   -2.538543   -2.403847
     61          1           0        6.622981   -3.590954   -2.230347
     62          1           0        5.268020   -2.505861   -2.359192
     63          6           0        6.793286   -2.166025   -3.837508
     64          1           0        6.439658   -1.157760   -4.082264
     65          1           0        6.267086   -2.841110   -4.529380
     66          6           0        8.301621   -2.244785   -4.155984
     67          1           0        8.834778   -1.563160   -3.478175
     68          6           0        8.564712   -1.762525   -5.591773
     69          1           0        8.060214   -2.410284   -6.320310
     70          1           0        9.635548   -1.771648   -5.825316
     71          1           0        8.196628   -0.741407   -5.744260
     72          6           0        8.874873   -3.655854   -3.948603
     73          1           0        8.355542   -4.384468   -4.584870
     74          1           0        9.938997   -3.687603   -4.209059
     75          1           0        8.780228   -3.992495   -2.911240
 ---------------------------------------------------------------------

 SCF Done:  E(RHF) =  -1198.92107925     A.U. after    9 cycles

 Alpha  occ. eigenvalues --  -20.56053 -20.55391 -11.28229 -11.27812 -11.25025
 Alpha  occ. eigenvalues --  -11.24480 -11.23142 -11.23079 -11.23062 -11.22715
 Alpha  occ. eigenvalues --  -11.22568 -11.22450 -11.22275 -11.22273 -11.22268
 Alpha  occ. eigenvalues --  -11.22212 -11.21981 -11.21784 -11.21536 -11.21421
 Alpha  occ. eigenvalues --  -11.21336 -11.21265 -11.21065 -11.21052 -11.20952
 Alpha  occ. eigenvalues --  -11.20940 -11.20901 -11.20839 -11.20709  -1.35435
 Alpha  occ. eigenvalues --   -1.34472  -1.16015  -1.13891  -1.09480  -1.07966
 Alpha  occ. eigenvalues --   -1.06031  -1.05500  -1.03088  -1.01556  -0.99391
 Alpha  occ. eigenvalues --   -0.97937  -0.96287  -0.92960  -0.92441  -0.92282
 Alpha  occ. eigenvalues --   -0.91431  -0.90709  -0.86491  -0.84058  -0.82795
 Alpha  occ. eigenvalues --   -0.82608  -0.79311  -0.78333  -0.77158  -0.75053
 Alpha  occ. eigenvalues --   -0.72451  -0.71299  -0.69817  -0.67667  -0.66664
 Alpha  occ. eigenvalues --   -0.64864  -0.64249  -0.63817  -0.63462  -0.62426
 Alpha  occ. eigenvalues --   -0.61921  -0.61250  -0.60934  -0.59931  -0.59440
 Alpha  occ. eigenvalues --   -0.58615  -0.58189  -0.57625  -0.57241  -0.56454
 Alpha  occ. eigenvalues --   -0.56092  -0.55562  -0.55482  -0.54586  -0.54434
 Alpha  occ. eigenvalues --   -0.54274  -0.53674  -0.53378  -0.53062  -0.52820
 Alpha  occ. eigenvalues --   -0.52764  -0.52076  -0.50934  -0.50591  -0.50269
 Alpha  occ. eigenvalues --   -0.49548  -0.48392  -0.48111  -0.47954  -0.47181
 Alpha  occ. eigenvalues --   -0.47113  -0.46610  -0.46071  -0.45674  -0.45245
 Alpha  occ. eigenvalues --   -0.44693  -0.44524  -0.43840  -0.43649  -0.43329
 Alpha  occ. eigenvalues --   -0.42874  -0.42727  -0.41956  -0.41613  -0.40074
 Alpha  occ. eigenvalues --   -0.38363  -0.34573
 Alpha virt. eigenvalues --    0.16192   0.20273   0.21128   0.21341   0.22516
 Alpha virt. eigenvalues --    0.23153   0.24024   0.24041   0.24478   0.25299
 Alpha virt. eigenvalues --    0.25577   0.25925   0.26427   0.27097   0.27620

 Mulliken atomic charges:
              1
     1  O   -0.768510
     2  H    0.433699
     3  O   -0.758640
     4  H    0.428732
     5  C   -0.028378
     6  C   -0.144776
     7  H    0.175335
     8  C   -0.187776
     9  H    0.163123
    10  C   -0.163571
    11  H    0.147492
    12  C   -0.143122
    13  H    0.156824
    14  C   -0.298351
    15  H    0.152049
    16  H    0.164400
    17  C   -0.040298
    18  C   -0.326731
    19  H    0.188984
    20  H    0.150570
    21  C   -0.326926
    22  H    0.164730
    23  H    0.164776
    24  C   -0.336672
    25  H    0.158053
    26  H    0.170209
    27  C    0.176565
    28  H    0.180360
    29  C   -0.142578
    30  H    0.154927
    31  C   -0.489623
    32  H    0.160058
    33  H    0.166055
    34  H    0.161745
    35  C    0.072952
    36  C   -0.324215
    37  H    0.161679
    38  H    0.174715
    39  C   -0.286340
    40  H    0.192142
    41  C   -0.480579
    42  H    0.167348
    43  H    0.162801
    44  H    0.171251
    45  C   -0.367180
    46  H    0.194117
    47  H    0.155288
    48  C   -0.340929
    49  H    0.145580
    50  H    0.184038
    51  C   -0.318706
    52  H    0.156473
    53  H    0.162940
    54  C    0.194430
    55  H    0.171244
    56  C   -0.488770
    57  H    0.158378
    58  H    0.158914
    59  H    0.159899
    60  C   -0.320245
    61  H    0.158186
    62  H    0.162482
    63  C   -0.299931
    64  H    0.156562
    65  H    0.149276
    66  C   -0.151520
    67  H    0.155155
    68  C   -0.471930
    69  H    0.152338
    70  H    0.157527
    71  H    0.157119
    72  C   -0.477259
    73  H    0.151989
    74  H    0.157693
    75  H    0.162354
 Sum of Mulliken atomic charges =   0.00000

 Dipole moment (field-independent basis, Debye):
    X=              1.5027    Y=              2.0918    Z=              0.5084  Tot=              2.6253
 Quadrupole moment (field-independent basis, Debye-Ang):
   XX=           -195.6422   YY=           -179.1645   ZZ=           -184.2391
   XY=             10.0514   XZ=              0.0024   YZ=              4.3211

 Normal termination of Gaussian 09 at Thu May 18 12:59:14 2017.
