 Gaussian 09, Revision C.01,
 Gaussian 09:  EM64L-G09RevC.01 23-Sep-2011

 ----------------------------------------------------------------------
 #P HF/6-31G* SCF(Conver=6) NoSymm Test Pop=mk IOp(6/33=2) GFInput GFPr
 int
 ----------------------------------------------------------------------

 (Enter /scratch/michal/g09/l101.exe)
 ----------------------------------------------
 MEP - Input generated by R.E.D.-III.x MOLECULE
 ----------------------------------------------
 Charge =  0 Multiplicity = 1

                          Input orientation:
 ---------------------------------------------------------------------
 Center     Atomic      Atomic             Coordinates (Angstroms)
 Number     Number       Type             X           Y           Z
 ---------------------------------------------------------------------
      1          8           0        0.000000    0.000000    0.000000
      2          1           0       -0.473307    0.454057   -0.709940
      3          8           0       -3.270545    5.866685    0.000000
      4          1           0       -2.971502    6.551832    0.614261
      5          6           0        4.182650    1.137162   -0.375028
      6          6           0        2.795785    0.581861    0.053967
      7          1           0        2.349920    0.167058   -0.861317
      8          6           0        1.802859    1.633188    0.564355
      9          1           0        2.195801    2.080935    1.488750
     10          6           0        1.599388    2.747149   -0.493406
     11          1           0        1.067793    2.271359   -1.334349
     12          6           0        4.892359   -0.200572   -0.786307
     13          1           0        4.450425   -0.494701   -1.751613
     14          6           0        3.912637    2.149211   -1.507687
     15          1           0        3.485165    1.609707   -2.365110
     16          1           0        4.834435    2.619334   -1.864489
     17          6           0        0.656500    3.892107    0.018293
     18          6           0        3.123215   -0.620083    0.949824
     19          1           0        2.299050   -1.337817    0.987235
     20          1           0        3.319496   -0.299540    1.981030
     21          6           0        2.942198    3.262605   -1.062589
     22          1           0        3.448276    3.882581   -0.315358
     23          1           0        2.751080    3.919882   -1.918768
     24          6           0        4.400328   -1.219176    0.299495
     25          1           0        5.182804   -1.384242    1.050046
     26          1           0        4.190532   -2.195330   -0.147424
     27          6           0        0.450362    0.996318    0.948230
     28          1           0        0.586016    0.424052    1.873160
     29          6           0        6.431754   -0.225956   -0.974146
     30          1           0        6.892004    0.000000    0.000000
     31          6           0        4.942241    1.807862    0.792609
     32          1           0        4.370223    2.618606    1.251134
     33          1           0        5.181676    1.094198    1.586711
     34          1           0        5.887977    2.237230    0.445734
     35          6           0       -0.561263    3.299932    0.739891
     36          6           0        0.148893    4.707913   -1.210875
     37          1           0       -0.201978    3.998396   -1.973189
     38          1           0        0.988985    5.250648   -1.657263
     39          6           0       -0.626419    2.022368    1.149590
     40          1           0       -1.533683    1.665761    1.636437
     41          6           0        1.391799    4.841183    1.003570
     42          1           0        2.157165    5.431660    0.491054
     43          1           0        0.701870    5.546926    1.472770
     44          1           0        1.874531    4.279400    1.808938
     45          6           0       -1.727296    4.236645    0.997803
     46          1           0       -2.570947    3.682872    1.421248
     47          1           0       -1.439377    4.992719    1.745695
     48          6           0       -0.989804    5.694632   -0.910433
     49          1           0       -0.641138    6.491142   -0.236575
     50          1           0       -1.313864    6.185874   -1.834900
     51          6           0        6.903299   -1.645092   -1.384016
     52          1           0        6.372615   -2.388740   -0.782062
     53          1           0        6.602635   -1.828233   -2.427496
     54          6           0       -2.179233    4.982314   -0.267076
     55          1           0       -2.591385    4.256855   -0.979317
     56          6           0        6.934203    0.814021   -1.991823
     57          1           0        6.413538    0.704006   -2.951357
     58          1           0        8.005400    0.698345   -2.182648
     59          1           0        6.782626    1.839096   -1.645983
     60          6           0        8.413795   -1.893326   -1.239225
     61          1           0        8.973025   -1.137508   -1.803699
     62          1           0        8.701033   -1.752541   -0.188272
     63          6           0        8.881202   -3.276107   -1.731387
     64          1           0        9.979225   -3.314987   -1.673533
     65          1           0        8.631873   -3.367847   -2.798505
     66          6           0        8.319343   -4.509897   -0.992984
     67          1           0        7.222779   -4.488080   -1.067526
     68          6           0        8.690874   -4.520811    0.498313
     69          1           0        9.781118   -4.519547    0.627769
     70          1           0        8.299212   -5.417150    0.992567
     71          1           0        8.291621   -3.651192    1.030272
     72          6           0        8.799840   -5.799809   -1.677212
     73          1           0        9.893379   -5.883243   -1.630722
     74          1           0        8.378297   -6.688262   -1.193295
     75          1           0        8.509279   -5.823674   -2.733834
 ---------------------------------------------------------------------

 SCF Done:  E(RHF) =  -1198.92682343     A.U. after    9 cycles

 Alpha  occ. eigenvalues --  -20.56050 -20.55386 -11.28226 -11.27809 -11.25018
 Alpha  occ. eigenvalues --  -11.24475 -11.23126 -11.23074 -11.23059 -11.22711
 Alpha  occ. eigenvalues --  -11.22574 -11.22445 -11.22279 -11.22264 -11.22244
 Alpha  occ. eigenvalues --  -11.22205 -11.21962 -11.21874 -11.21514 -11.21442
 Alpha  occ. eigenvalues --  -11.21383 -11.21167 -11.21094 -11.21049 -11.20937
 Alpha  occ. eigenvalues --  -11.20920 -11.20913 -11.20785 -11.20690  -1.35431
 Alpha  occ. eigenvalues --   -1.34468  -1.16005  -1.13871  -1.09596  -1.08045
 Alpha  occ. eigenvalues --   -1.06033  -1.05709  -1.03082  -1.01667  -0.99479
 Alpha  occ. eigenvalues --   -0.97977  -0.96264  -0.92888  -0.92384  -0.92282
 Alpha  occ. eigenvalues --   -0.90940  -0.90642  -0.86486  -0.83990  -0.82614
 Alpha  occ. eigenvalues --   -0.82453  -0.79283  -0.78298  -0.77169  -0.74652
 Alpha  occ. eigenvalues --   -0.73775  -0.71796  -0.69773  -0.67621  -0.66556
 Alpha  occ. eigenvalues --   -0.64513  -0.64227  -0.63907  -0.63251  -0.62985
 Alpha  occ. eigenvalues --   -0.62029  -0.61216  -0.60842  -0.60243  -0.59088
 Alpha  occ. eigenvalues --   -0.58610  -0.58092  -0.57386  -0.57102  -0.56591
 Alpha  occ. eigenvalues --   -0.56228  -0.55849  -0.55408  -0.54772  -0.54450
 Alpha  occ. eigenvalues --   -0.54185  -0.53871  -0.53150  -0.52987  -0.52911
 Alpha  occ. eigenvalues --   -0.52459  -0.52051  -0.51066  -0.50526  -0.49647
 Alpha  occ. eigenvalues --   -0.48754  -0.48340  -0.48075  -0.47901  -0.47248
 Alpha  occ. eigenvalues --   -0.46988  -0.46665  -0.46131  -0.45627  -0.45424
 Alpha  occ. eigenvalues --   -0.45102  -0.44588  -0.44169  -0.43808  -0.43320
 Alpha  occ. eigenvalues --   -0.43126  -0.42786  -0.42320  -0.41561  -0.40035
 Alpha  occ. eigenvalues --   -0.38299  -0.34569
 Alpha virt. eigenvalues --    0.16196   0.20553   0.21350   0.21459   0.22627
 Alpha virt. eigenvalues --    0.22902   0.24073   0.24498   0.24851   0.25255
 Alpha virt. eigenvalues --    0.25776   0.26020   0.26608   0.27077   0.27649

 Mulliken atomic charges:
              1
     1  O   -0.768473
     2  H    0.433668
     3  O   -0.758659
     4  H    0.428726
     5  C   -0.029829
     6  C   -0.145149
     7  H    0.175571
     8  C   -0.187854
     9  H    0.163024
    10  C   -0.163536
    11  H    0.147619
    12  C   -0.136168
    13  H    0.153552
    14  C   -0.298177
    15  H    0.152409
    16  H    0.164399
    17  C   -0.040200
    18  C   -0.326118
    19  H    0.188767
    20  H    0.150539
    21  C   -0.326834
    22  H    0.164712
    23  H    0.164708
    24  C   -0.336663
    25  H    0.157067
    26  H    0.169207
    27  C    0.176530
    28  H    0.180233
    29  C   -0.147270
    30  H    0.151949
    31  C   -0.489136
    32  H    0.159748
    33  H    0.165813
    34  H    0.162345
    35  C    0.073000
    36  C   -0.324177
    37  H    0.161668
    38  H    0.174688
    39  C   -0.286459
    40  H    0.192123
    41  C   -0.480650
    42  H    0.167381
    43  H    0.162797
    44  H    0.171181
    45  C   -0.367192
    46  H    0.194099
    47  H    0.155264
    48  C   -0.340888
    49  H    0.145588
    50  H    0.184013
    51  C   -0.314875
    52  H    0.172654
    53  H    0.147267
    54  C    0.194438
    55  H    0.171230
    56  C   -0.485044
    57  H    0.153316
    58  H    0.162689
    59  H    0.160801
    60  C   -0.312994
    61  H    0.157869
    62  H    0.153462
    63  C   -0.296890
    64  H    0.150376
    65  H    0.151824
    66  C   -0.153164
    67  H    0.156990
    68  C   -0.476248
    69  H    0.151693
    70  H    0.158501
    71  H    0.160974
    72  C   -0.471593
    73  H    0.151872
    74  H    0.158202
    75  H    0.157695
 Sum of Mulliken atomic charges =   0.00000

 Dipole moment (field-independent basis, Debye):
    X=              1.4232    Y=              2.1146    Z=              0.3440  Tot=              2.5721
 Quadrupole moment (field-independent basis, Debye-Ang):
   XX=           -196.9795   YY=           -179.5181   ZZ=           -182.9878
   XY=             10.4338   XZ=             -1.3599   YZ=              4.4162

 Normal termination of Gaussian 09 at Thu May 18 12:33:04 2017.
