 Gaussian 09, Revision C.01,
 Gaussian 09:  EM64L-G09RevC.01 23-Sep-2011

 ----------------------------------------------------------------------
 #P HF/6-31G* SCF(Conver=6) NoSymm Test Pop=mk IOp(6/33=2) GFInput GFPr
 int
 ----------------------------------------------------------------------

 (Enter /scratch/michal/g09/l101.exe)
 ----------------------------------------------
 MEP - Input generated by R.E.D.-III.x MOLECULE
 ----------------------------------------------
 Charge =  0 Multiplicity = 1

                          Input orientation:
 ---------------------------------------------------------------------
 Center     Atomic      Atomic             Coordinates (Angstroms)
 Number     Number       Type             X           Y           Z
 ---------------------------------------------------------------------
      1          8           0        0.000000    0.000000    0.000000
      2          1           0       -0.474127    0.453011   -0.710060
      3          8           0       -3.276265    5.863456    0.000000
      4          1           0       -2.976034    6.550377    0.611698
      5          6           0        4.180159    1.141427   -0.383142
      6          6           0        2.795883    0.584432    0.051168
      7          1           0        2.348594    0.165260   -0.861434
      8          6           0        1.801857    1.635419    0.560547
      9          1           0        2.195010    2.085352    1.483740
     10          6           0        1.595205    2.747259   -0.499008
     11          1           0        1.062118    2.269297   -1.337761
     12          6           0        4.890802   -0.195072   -0.794083
     13          1           0        4.447733   -0.491721   -1.758137
     14          6           0        3.906189    2.149787   -1.517765
     15          1           0        3.476684    1.607328   -2.372348
     16          1           0        4.826938    2.619157   -1.878423
     17          6           0        0.652311    3.892221    0.012703
     18          6           0        3.129558   -0.613609    0.950419
     19          1           0        2.306760   -1.332535    0.995133
     20          1           0        3.330596   -0.288362    1.979228
     21          6           0        2.935948    3.263267   -1.073007
     22          1           0        3.443352    3.885836   -0.328815
     23          1           0        2.741485    3.918064   -1.930329
     24          6           0        4.404117   -1.213462    0.295373
     25          1           0        5.190493   -1.379013    1.041397
     26          1           0        4.190791   -2.190213   -0.148382
     27          6           0        0.450641    0.997454    0.946825
     28          1           0        0.588225    0.425997    1.871962
     29          6           0        6.429929   -0.221852   -0.979053
     30          1           0        6.879788    0.000000    0.000000
     31          6           0        4.940593    1.816861    0.781570
     32          1           0        4.365369    2.624349    1.241934
     33          1           0        5.186941    1.105015    1.575172
     34          1           0        5.882540    2.251842    0.431477
     35          6           0       -0.563367    3.300110    0.738068
     36          6           0        0.140997    4.705016   -1.216922
     37          1           0       -0.211351    3.993648   -1.976842
     38          1           0        0.979554    5.247399   -1.666585
     39          6           0       -0.626627    2.022876    1.149276
     40          1           0       -1.532617    1.666093    1.638363
     41          6           0        1.389355    4.844109    0.993917
     42          1           0        2.153323    5.433326    0.477932
     43          1           0        0.700293    5.550936    1.462739
     44          1           0        1.874165    4.284700    1.799663
     45          6           0       -1.729335    4.236512    0.997240
     46          1           0       -2.571606    3.683067    1.423837
     47          1           0       -1.440013    4.994225    1.742897
     48          6           0       -0.997596    5.691467   -0.915630
     49          1           0       -0.647974    6.489551   -0.244144
     50          1           0       -1.324313    6.180678   -1.840245
     51          6           0        6.912720   -1.643989   -1.402606
     52          1           0        6.100610   -2.366151   -1.270549
     53          1           0        7.126581   -1.643859   -2.479986
     54          6           0       -2.184929    4.979428   -0.267997
     55          1           0       -2.598077    4.252205   -0.977852
     56          6           0        6.943743    0.829110   -1.980365
     57          1           0        6.433990    0.729365   -2.946792
     58          1           0        8.015308    0.702714   -2.161913
     59          1           0        6.793432    1.852583   -1.627693
     60          6           0        8.128561   -2.188759   -0.624701
     61          1           0        7.878314   -2.182723    0.445242
     62          1           0        8.264973   -3.245521   -0.888159
     63          6           0        9.465099   -1.444949   -0.805390
     64          1           0       10.188462   -1.857485   -0.086410
     65          1           0        9.334736   -0.391996   -0.520966
     66          6           0       10.105466   -1.503638   -2.209099
     67          1           0        9.376308   -1.126237   -2.940167
     68          6           0       10.482628   -2.935401   -2.623087
     69          1           0       11.199555   -3.369340   -1.913835
     70          1           0       10.949835   -2.945002   -3.614415
     71          1           0        9.612052   -3.597659   -2.664284
     72          6           0       11.337295   -0.585872   -2.269477
     73          1           0       12.104239   -0.914079   -1.556072
     74          1           0       11.789309   -0.590273   -3.267927
     75          1           0       11.077268    0.450210   -2.023427
 ---------------------------------------------------------------------

 SCF Done:  E(RHF) =  -1198.92192505     A.U. after    9 cycles

 Alpha  occ. eigenvalues --  -20.56051 -20.55387 -11.28226 -11.27809 -11.25019
 Alpha  occ. eigenvalues --  -11.24476 -11.23129 -11.23074 -11.23058 -11.22711
 Alpha  occ. eigenvalues --  -11.22551 -11.22446 -11.22368 -11.22264 -11.22206
 Alpha  occ. eigenvalues --  -11.22192 -11.21962 -11.21865 -11.21535 -11.21511
 Alpha  occ. eigenvalues --  -11.21402 -11.21188 -11.21074 -11.21050 -11.21029
 Alpha  occ. eigenvalues --  -11.20963 -11.20942 -11.20843 -11.20705  -1.35432
 Alpha  occ. eigenvalues --   -1.34469  -1.16002  -1.13863  -1.09583  -1.08002
 Alpha  occ. eigenvalues --   -1.06026  -1.05562  -1.03081  -1.01630  -0.99497
 Alpha  occ. eigenvalues --   -0.97961  -0.96270  -0.92899  -0.92441  -0.92316
 Alpha  occ. eigenvalues --   -0.91213  -0.90650  -0.86483  -0.83949  -0.82611
 Alpha  occ. eigenvalues --   -0.82249  -0.79408  -0.78434  -0.77220  -0.74832
 Alpha  occ. eigenvalues --   -0.73401  -0.71859  -0.69786  -0.67642  -0.66611
 Alpha  occ. eigenvalues --   -0.64379  -0.64196  -0.63958  -0.63463  -0.62384
 Alpha  occ. eigenvalues --   -0.61530  -0.61251  -0.60919  -0.60514  -0.59372
 Alpha  occ. eigenvalues --   -0.58645  -0.58426  -0.57428  -0.56763  -0.56401
 Alpha  occ. eigenvalues --   -0.56218  -0.55912  -0.55426  -0.54893  -0.54326
 Alpha  occ. eigenvalues --   -0.54048  -0.53996  -0.53576  -0.52990  -0.52877
 Alpha  occ. eigenvalues --   -0.52488  -0.52007  -0.50908  -0.50593  -0.50014
 Alpha  occ. eigenvalues --   -0.49193  -0.48261  -0.48061  -0.47944  -0.47261
 Alpha  occ. eigenvalues --   -0.46887  -0.46848  -0.46280  -0.45643  -0.45379
 Alpha  occ. eigenvalues --   -0.44995  -0.44526  -0.43844  -0.43597  -0.43057
 Alpha  occ. eigenvalues --   -0.42985  -0.42816  -0.42493  -0.41637  -0.40028
 Alpha  occ. eigenvalues --   -0.38282  -0.34568
 Alpha virt. eigenvalues --    0.16196   0.20541   0.21319   0.21384   0.22525
 Alpha virt. eigenvalues --    0.23006   0.23515   0.24392   0.24932   0.25317
 Alpha virt. eigenvalues --    0.25858   0.26067   0.26381   0.26985   0.27240

 Mulliken atomic charges:
              1
     1  O   -0.768436
     2  H    0.433684
     3  O   -0.758638
     4  H    0.428731
     5  C   -0.030409
     6  C   -0.145196
     7  H    0.175696
     8  C   -0.187827
     9  H    0.163002
    10  C   -0.163579
    11  H    0.147570
    12  C   -0.144025
    13  H    0.154050
    14  C   -0.298141
    15  H    0.152399
    16  H    0.164477
    17  C   -0.040268
    18  C   -0.326766
    19  H    0.188568
    20  H    0.150606
    21  C   -0.326818
    22  H    0.164715
    23  H    0.164686
    24  C   -0.334004
    25  H    0.158394
    26  H    0.168957
    27  C    0.176506
    28  H    0.180246
    29  C   -0.137075
    30  H    0.156824
    31  C   -0.489605
    32  H    0.159856
    33  H    0.165917
    34  H    0.162120
    35  C    0.073009
    36  C   -0.324169
    37  H    0.161656
    38  H    0.174694
    39  C   -0.286409
    40  H    0.192108
    41  C   -0.480610
    42  H    0.167398
    43  H    0.162786
    44  H    0.171170
    45  C   -0.367165
    46  H    0.194102
    47  H    0.155276
    48  C   -0.340899
    49  H    0.145579
    50  H    0.184011
    51  C   -0.324631
    52  H    0.167686
    53  H    0.158064
    54  C    0.194407
    55  H    0.171232
    56  C   -0.490697
    57  H    0.153812
    58  H    0.166221
    59  H    0.158441
    60  C   -0.312583
    61  H    0.155320
    62  H    0.157023
    63  C   -0.305145
    64  H    0.151243
    65  H    0.155890
    66  C   -0.152652
    67  H    0.155852
    68  C   -0.475703
    69  H    0.151897
    70  H    0.158103
    71  H    0.162262
    72  C   -0.472652
    73  H    0.152805
    74  H    0.158137
    75  H    0.156914
 Sum of Mulliken atomic charges =   0.00000

 Dipole moment (field-independent basis, Debye):
    X=              1.3931    Y=              2.0348    Z=              0.3353  Tot=              2.4887
 Quadrupole moment (field-independent basis, Debye-Ang):
   XX=           -198.2110   YY=           -178.8083   ZZ=           -182.6413
   XY=              9.2008   XZ=             -1.1921   YZ=              4.5724

 Normal termination of Gaussian 09 at Thu May 18 12:48:30 2017.
