 Gaussian 09, Revision C.01,
 Gaussian 09:  EM64L-G09RevC.01 23-Sep-2011

 ----------------------------------------------------------------------
 #P HF/6-31G* SCF(Conver=6) NoSymm Test Pop=mk IOp(6/33=2) GFInput GFPr
 int
 ----------------------------------------------------------------------

 (Enter /scratch/michal/g09/l101.exe)
 ----------------------------------------------
 MEP - Input generated by R.E.D.-III.x MOLECULE
 ----------------------------------------------
 Charge =  0 Multiplicity = 1

                          Input orientation:
 ---------------------------------------------------------------------
 Center     Atomic      Atomic             Coordinates (Angstroms)
 Number     Number       Type             X           Y           Z
 ---------------------------------------------------------------------
      1          8           0        5.764107    3.442823    0.000000
      2          1           0        5.127866    3.283865    0.710022
      3          8           0        0.000000    0.000000    0.000000
      4          1           0       -0.084402   -0.743511   -0.613382
      5          6           0        8.820287    0.367400    0.369208
      6          6           0        7.895683    1.542146   -0.056795
      7          1           0        7.716187    2.120983    0.860418
      8          6           0        6.510359    1.128538   -0.568371
      9          1           0        6.627309    0.545776   -1.493656
     10          6           0        5.777750    0.263982    0.488430
     11          1           0        5.556578    0.940557    1.330738
     12          6           0       10.102673    1.172085    0.781798
     13          1           0        9.864598    1.648357    1.746269
     14          6           0        8.080533   -0.376709    1.500425
     15          1           0        7.980557    0.302013    2.359677
     16          1           0        8.643201   -1.245990    1.855133
     17          6           0        4.387881   -0.255142   -0.021947
     18          6           0        8.778879    2.423965   -0.949550
     19          1           0        8.424407    3.458003   -0.979336
     20          1           0        8.785383    2.054895   -1.983245
     21          6           0        6.683386   -0.854804    1.054598
     22          1           0        6.811651   -1.642760    0.305262
     23          1           0        6.189701   -1.330823    1.909761
     24          6           0       10.186451    2.298968   -0.304612
     25          1           0       10.941402    2.045008   -1.058465
     26          1           0       10.501991    3.247277    0.140095
     27          6           0        5.656943    2.356504   -0.950313
     28          1           0        6.060555    2.786285   -1.874295
     29          6           0       11.451276    0.429033    0.972348
     30          1           0       11.731737    0.000000    0.000000
     31          6           0        9.144153   -0.591197   -0.799527
     32          1           0        8.244366   -1.010980   -1.256759
     33          1           0        9.705116   -0.090170   -1.594234
     34          1           0        9.752600   -1.433476   -0.453564
     35          6           0        3.629249    0.866745   -0.743178
     36          6           0        3.541365   -0.706655    1.208388
     37          1           0        3.593155    0.083870    1.969989
     38          1           0        3.997678   -1.596501    1.655111
     39          6           0        4.211526    2.005928   -1.152495
     40          1           0        3.603980    2.768605   -1.638832
     41          6           0        4.548122   -1.445400   -1.006701
     42          1           0        4.916163   -2.339248   -0.494167
     43          1           0        3.596892   -1.711597   -1.474193
     44          1           0        5.245877   -1.201010   -1.813305
     45          6           0        2.150946    0.638521   -1.000138
     46          1           0        1.696946    1.539678   -1.423824
     47          1           0        2.021561   -0.160778   -1.747306
     48          6           0        2.061554   -0.991557    0.909452
     49          1           0        1.964353   -1.856122    0.236297
     50          1           0        1.535920   -1.254052    1.834538
     51          6           0       12.551884    1.442368    1.379627
     52          1           0       12.564306    2.267683    0.658318
     53          1           0       12.265021    1.886949    2.344438
     54          6           0        1.387615    0.219864    0.265716
     55          1           0        1.394451    1.054786    0.977263
     56          6           0       11.375698   -0.718862    1.993424
     57          1           0       11.026824   -0.355734    2.968545
     58          1           0       12.356112   -1.180509    2.145153
     59          1           0       10.698195   -1.512603    1.671383
     60          6           0       13.992442    0.905684    1.498923
     61          1           0       14.620471    1.736819    1.843869
     62          1           0       14.048651    0.144683    2.286043
     63          6           0       14.564169    0.346527    0.185607
     64          1           0       14.419911    1.095907   -0.606721
     65          1           0       13.980569   -0.532201   -0.120045
     66          6           0       16.057880   -0.057003    0.204698
     67          1           0       16.276932   -0.447770   -0.800120
     68          6           0       16.352133   -1.188996    1.203154
     69          1           0       16.215374   -0.858948    2.239426
     70          1           0       17.386883   -1.536642    1.104830
     71          1           0       15.693762   -2.049759    1.036252
     72          6           0       16.995671    1.139846    0.434887
     73          1           0       16.887381    1.552821    1.444346
     74          1           0       18.043509    0.841133    0.316175
     75          1           0       16.795524    1.946608   -0.280041
 ---------------------------------------------------------------------

 SCF Done:  E(RHF) =  -1198.92545505     A.U. after    9 cycles

 Alpha  occ. eigenvalues --  -20.56041 -20.55367 -11.28216 -11.27791 -11.25004
 Alpha  occ. eigenvalues --  -11.24461 -11.23106 -11.23062 -11.23047 -11.22701
 Alpha  occ. eigenvalues --  -11.22545 -11.22476 -11.22432 -11.22251 -11.22185
 Alpha  occ. eigenvalues --  -11.22121 -11.21946 -11.21822 -11.21498 -11.21407
 Alpha  occ. eigenvalues --  -11.21326 -11.21248 -11.21022 -11.21018 -11.20999
 Alpha  occ. eigenvalues --  -11.20947 -11.20924 -11.20755 -11.20643  -1.35422
 Alpha  occ. eigenvalues --   -1.34449  -1.15983  -1.13845  -1.09576  -1.07995
 Alpha  occ. eigenvalues --   -1.06017  -1.05676  -1.03058  -1.01640  -0.99288
 Alpha  occ. eigenvalues --   -0.97940  -0.96228  -0.92885  -0.92384  -0.92329
 Alpha  occ. eigenvalues --   -0.91105  -0.90612  -0.86474  -0.84578  -0.82800
 Alpha  occ. eigenvalues --   -0.82586  -0.79013  -0.78031  -0.77111  -0.74736
 Alpha  occ. eigenvalues --   -0.72738  -0.71820  -0.69768  -0.67613  -0.66597
 Alpha  occ. eigenvalues --   -0.64653  -0.64216  -0.64024  -0.63251  -0.62630
 Alpha  occ. eigenvalues --   -0.61979  -0.61172  -0.60664  -0.60208  -0.59267
 Alpha  occ. eigenvalues --   -0.58729  -0.58524  -0.57925  -0.57112  -0.56618
 Alpha  occ. eigenvalues --   -0.56052  -0.55779  -0.55255  -0.54939  -0.54298
 Alpha  occ. eigenvalues --   -0.54258  -0.53740  -0.53452  -0.52965  -0.52573
 Alpha  occ. eigenvalues --   -0.52045  -0.51926  -0.51163  -0.50731  -0.49974
 Alpha  occ. eigenvalues --   -0.49102  -0.48342  -0.48092  -0.47913  -0.47140
 Alpha  occ. eigenvalues --   -0.46965  -0.46501  -0.46274  -0.45605  -0.45283
 Alpha  occ. eigenvalues --   -0.44940  -0.44789  -0.44074  -0.43534  -0.43215
 Alpha  occ. eigenvalues --   -0.42799  -0.42762  -0.42403  -0.41569  -0.40021
 Alpha  occ. eigenvalues --   -0.38294  -0.34554
 Alpha virt. eigenvalues --    0.16214   0.20496   0.21253   0.21379   0.22530
 Alpha virt. eigenvalues --    0.22910   0.24060   0.24497   0.25174   0.25367
 Alpha virt. eigenvalues --    0.25908   0.26226   0.26358   0.26808   0.27263

 Mulliken atomic charges:
              1
     1  O   -0.768389
     2  H    0.433621
     3  O   -0.758665
     4  H    0.428715
     5  C   -0.029469
     6  C   -0.145300
     7  H    0.175483
     8  C   -0.187621
     9  H    0.162959
    10  C   -0.163637
    11  H    0.147608
    12  C   -0.135626
    13  H    0.153204
    14  C   -0.298238
    15  H    0.152591
    16  H    0.163947
    17  C   -0.040161
    18  C   -0.326451
    19  H    0.188773
    20  H    0.150247
    21  C   -0.326727
    22  H    0.164635
    23  H    0.164622
    24  C   -0.335920
    25  H    0.157364
    26  H    0.169999
    27  C    0.176412
    28  H    0.180268
    29  C   -0.155008
    30  H    0.157482
    31  C   -0.488956
    32  H    0.159624
    33  H    0.165986
    34  H    0.161737
    35  C    0.072935
    36  C   -0.324136
    37  H    0.161642
    38  H    0.174652
    39  C   -0.286299
    40  H    0.192082
    41  C   -0.480667
    42  H    0.167371
    43  H    0.162742
    44  H    0.171175
    45  C   -0.367173
    46  H    0.194078
    47  H    0.155234
    48  C   -0.340871
    49  H    0.145562
    50  H    0.183987
    51  C   -0.308288
    52  H    0.165175
    53  H    0.150444
    54  C    0.194418
    55  H    0.171221
    56  C   -0.484999
    57  H    0.152623
    58  H    0.163019
    59  H    0.160789
    60  C   -0.318719
    61  H    0.159983
    62  H    0.158366
    63  C   -0.305019
    64  H    0.150289
    65  H    0.155173
    66  C   -0.145641
    67  H    0.154825
    68  C   -0.477008
    69  H    0.156704
    70  H    0.158424
    71  H    0.155897
    72  C   -0.476347
    73  H    0.156107
    74  H    0.158095
    75  H    0.157046
 Sum of Mulliken atomic charges =   0.00000

 Dipole moment (field-independent basis, Debye):
    X=              0.2998    Y=             -2.5391    Z=             -0.4187  Tot=              2.5908
 Quadrupole moment (field-independent basis, Debye-Ang):
   XX=           -196.2912   YY=           -192.4359   ZZ=           -182.8320
   XY=            -10.9466   XZ=              0.3364   YZ=              2.2080

 Normal termination of Gaussian 09 at Thu May 18 14:18:09 2017.
