 Gaussian 09, Revision C.01,
 Gaussian 09:  EM64L-G09RevC.01 23-Sep-2011

 ----------------------------------------------------------------------
 #P HF/6-31G* SCF(Conver=6) NoSymm Test Pop=mk IOp(6/33=2) GFInput GFPr
 int
 ----------------------------------------------------------------------

 (Enter /scratch/michal/g09/l101.exe)
 ----------------------------------------------
 MEP - Input generated by R.E.D.-III.x MOLECULE
 ----------------------------------------------
 Charge =  0 Multiplicity = 1

                          Input orientation:
 ---------------------------------------------------------------------
 Center     Atomic      Atomic             Coordinates (Angstroms)
 Number     Number       Type             X           Y           Z
 ---------------------------------------------------------------------
      1          8           0        0.000000    0.000000    0.000000
      2          1           0       -0.222709    0.587534   -0.734426
      3          8           0       -2.402854    6.272338    0.000000
      4          1           0       -2.182315    6.841700    0.750579
      5          6           0        4.242316    0.533661    0.771549
      6          6           0        2.743270    0.139416    0.787167
      7          1           0        2.491574   -0.107555   -0.253443
      8          6           0        1.792064    1.273942    1.183176
      9          1           0        1.991058    1.567769    2.223882
     10          6           0        2.002482    2.500695    0.255122
     11          1           0        1.635251    2.190046   -0.737173
     12          6           0        4.858891   -0.839492    0.357166
     13          1           0        4.509732   -0.980797   -0.675699
     14          6           0        4.404986    1.660929   -0.262216
     15          1           0        4.147272    1.268219   -1.256390
     16          1           0        5.446617    2.004320   -0.320654
     17          6           0        1.114000    3.723422    0.677247
     18          6           0        2.704684   -1.191033    1.562419
     19          1           0        1.850074   -1.804842    1.264633
     20          1           0        2.613642   -1.016479    2.642198
     21          6           0        3.497975    2.864694    0.067739
     22          1           0        3.879254    3.348290    0.972587
     23          1           0        3.594968    3.606842   -0.732878
     24          6           0        4.070985   -1.868059    1.226792
     25          1           0        4.610293   -2.107914    2.147223
     26          1           0        3.934958   -2.813971    0.692440
     27          6           0        0.317964    0.819032    1.150031
     28          1           0        0.144345    0.145762    1.997485
     29          6           0        6.410157   -0.989049    0.278804
     30          1           0        6.801845    0.000000    0.000000
     31          6           0        4.750687    0.997289    2.154233
     32          1           0        4.191589    1.855941    2.534751
     33          1           0        4.676082    0.207791    2.907234
     34          1           0        5.800935    1.300994    2.094048
     35          6           0       -0.310389    3.259898    1.011639
     36          6           0        1.036172    4.721711   -0.519304
     37          1           0        0.800588    4.151144   -1.428521
     38          1           0        2.022310    5.169428   -0.682116
     39          6           0       -0.636948    1.974543    1.225374
     40          1           0       -1.674667    1.717663    1.436191
     41          6           0        1.693894    4.449726    1.921709
     42          1           0        2.631006    4.961668    1.683274
     43          1           0        1.003602    5.205547    2.304479
     44          1           0        1.885481    3.746339    2.737580
     45          6           0       -1.376021    4.336236    1.109637
     46          1           0       -2.361559    3.881145    1.248544
     47          1           0       -1.191169    4.964010    1.995964
     48          6           0       -0.007629    5.838585   -0.366806
     49          1           0        0.259319    6.503206    0.468094
     50          1           0       -0.025726    6.460463   -1.268978
     51          6           0        7.101594   -1.418341    1.595092
     52          1           0        6.771647   -0.771377    2.414204
     53          1           0        6.760192   -2.428423    1.856807
     54          6           0       -1.400062    5.259974   -0.117673
     55          1           0       -1.709345    4.678040   -0.994676
     56          6           0        6.776043   -1.954854   -0.867459
     57          1           0        6.409176   -2.967928   -0.659048
     58          1           0        7.857052   -2.020626   -1.023166
     59          1           0        6.329294   -1.628000   -1.812776
     60          6           0        8.645679   -1.452469    1.574847
     61          1           0        8.984100   -1.818005    2.552817
     62          1           0        8.983601   -2.207799    0.854991
     63          6           0        9.366123   -0.130538    1.249959
     64          1           0        9.081566    0.200407    0.241966
     65          1           0       10.446508   -0.332829    1.201235
     66          6           0        9.143675    1.041156    2.229398
     67          1           0        8.065231    1.247214    2.281300
     68          6           0        9.830236    2.311530    1.702227
     69          1           0       10.916134    2.167875    1.631835
     70          1           0        9.651012    3.166146    2.364691
     71          1           0        9.465535    2.578379    0.703550
     72          6           0        9.627772    0.719051    3.652233
     73          1           0       10.699485    0.480938    3.653694
     74          1           0        9.477502    1.575239    4.319706
     75          1           0        9.096567   -0.133726    4.086873
 ---------------------------------------------------------------------

 SCF Done:  E(RHF) =  -1198.92160640     A.U. after    9 cycles

 Alpha  occ. eigenvalues --  -20.56061 -20.55385 -11.28236 -11.27809 -11.25057
 Alpha  occ. eigenvalues --  -11.24496 -11.23228 -11.23094 -11.23071 -11.22724
 Alpha  occ. eigenvalues --  -11.22497 -11.22458 -11.22334 -11.22290 -11.22287
 Alpha  occ. eigenvalues --  -11.22237 -11.22070 -11.21686 -11.21659 -11.21515
 Alpha  occ. eigenvalues --  -11.21456 -11.21243 -11.21157 -11.21090 -11.21022
 Alpha  occ. eigenvalues --  -11.21008 -11.20922 -11.20816 -11.20815  -1.35444
 Alpha  occ. eigenvalues --   -1.34467  -1.16040  -1.13921  -1.09647  -1.08004
 Alpha  occ. eigenvalues --   -1.06059  -1.05621  -1.03070  -1.01674  -0.99483
 Alpha  occ. eigenvalues --   -0.97984  -0.96181  -0.92758  -0.92495  -0.92114
 Alpha  occ. eigenvalues --   -0.91508  -0.90759  -0.86507  -0.84183  -0.83065
 Alpha  occ. eigenvalues --   -0.82665  -0.79431  -0.78158  -0.77511  -0.75023
 Alpha  occ. eigenvalues --   -0.72284  -0.71324  -0.69808  -0.67627  -0.66531
 Alpha  occ. eigenvalues --   -0.64475  -0.64270  -0.63891  -0.63611  -0.62744
 Alpha  occ. eigenvalues --   -0.62202  -0.61280  -0.61114  -0.60152  -0.59193
 Alpha  occ. eigenvalues --   -0.58942  -0.58289  -0.57986  -0.57272  -0.56350
 Alpha  occ. eigenvalues --   -0.56001  -0.55940  -0.55125  -0.55052  -0.54708
 Alpha  occ. eigenvalues --   -0.53905  -0.53599  -0.53316  -0.53038  -0.52801
 Alpha  occ. eigenvalues --   -0.52258  -0.51913  -0.51454  -0.51092  -0.50176
 Alpha  occ. eigenvalues --   -0.48581  -0.48386  -0.48217  -0.48110  -0.47532
 Alpha  occ. eigenvalues --   -0.46891  -0.46621  -0.46226  -0.45724  -0.45324
 Alpha  occ. eigenvalues --   -0.45036  -0.44838  -0.44222  -0.43785  -0.43194
 Alpha  occ. eigenvalues --   -0.42825  -0.42459  -0.41970  -0.41582  -0.40076
 Alpha  occ. eigenvalues --   -0.38464  -0.34585
 Alpha virt. eigenvalues --    0.16177   0.20024   0.21026   0.21346   0.22712
 Alpha virt. eigenvalues --    0.23100   0.23647   0.24064   0.24600   0.25308
 Alpha virt. eigenvalues --    0.25706   0.26133   0.26449   0.26799   0.27184

 Mulliken atomic charges:
              1
     1  O   -0.768544
     2  H    0.433687
     3  O   -0.758616
     4  H    0.428742
     5  C   -0.031436
     6  C   -0.145354
     7  H    0.175938
     8  C   -0.187859
     9  H    0.163434
    10  C   -0.163918
    11  H    0.147787
    12  C   -0.146853
    13  H    0.157687
    14  C   -0.296292
    15  H    0.152806
    16  H    0.157599
    17  C   -0.040289
    18  C   -0.327590
    19  H    0.188234
    20  H    0.150864
    21  C   -0.327308
    22  H    0.165679
    23  H    0.165432
    24  C   -0.330443
    25  H    0.164167
    26  H    0.166006
    27  C    0.177723
    28  H    0.180323
    29  C   -0.149314
    30  H    0.159091
    31  C   -0.496446
    32  H    0.160611
    33  H    0.166699
    34  H    0.167885
    35  C    0.072926
    36  C   -0.324410
    37  H    0.161701
    38  H    0.174834
    39  C   -0.286935
    40  H    0.192214
    41  C   -0.480662
    42  H    0.167192
    43  H    0.162920
    44  H    0.171465
    45  C   -0.367240
    46  H    0.194168
    47  H    0.155286
    48  C   -0.340929
    49  H    0.145600
    50  H    0.184068
    51  C   -0.317563
    52  H    0.163633
    53  H    0.157006
    54  C    0.194444
    55  H    0.171250
    56  C   -0.484672
    57  H    0.155361
    58  H    0.162589
    59  H    0.158084
    60  C   -0.317267
    61  H    0.158639
    62  H    0.159666
    63  C   -0.303012
    64  H    0.155092
    65  H    0.151027
    66  C   -0.160047
    67  H    0.160950
    68  C   -0.470998
    69  H    0.153355
    70  H    0.157344
    71  H    0.156137
    72  C   -0.475967
    73  H    0.152515
    74  H    0.157709
    75  H    0.162397
 Sum of Mulliken atomic charges =   0.00000

 Dipole moment (field-independent basis, Debye):
    X=              1.5420    Y=              1.7816    Z=              0.9463  Tot=              2.5392
 Quadrupole moment (field-independent basis, Debye-Ang):
   XX=           -193.1846   YY=           -183.0514   ZZ=           -182.7397
   XY=              9.4715   XZ=             -2.5597   YZ=              7.2548

 Normal termination of Gaussian 09 at Thu May 18 13:31:39 2017.
