 Gaussian 09, Revision C.01,
 Gaussian 09:  EM64L-G09RevC.01 23-Sep-2011

 ----------------------------------------------------------------------
 #P HF/6-31G* SCF(Conver=6) NoSymm Test Pop=mk IOp(6/33=2) GFInput GFPr
 int
 ----------------------------------------------------------------------

 (Enter /scratch/michal/g09/l101.exe)
 ----------------------------------------------
 MEP - Input generated by R.E.D.-III.x MOLECULE
 ----------------------------------------------
 Charge =  0 Multiplicity = 1

                          Input orientation:
 ---------------------------------------------------------------------
 Center     Atomic      Atomic             Coordinates (Angstroms)
 Number     Number       Type             X           Y           Z
 ---------------------------------------------------------------------
      1          8           0        0.000000    0.000000    0.000000
      2          1           0        0.966524    0.000000    0.000000
      3          8           0        4.367900   -1.399029   -4.904809
      4          1           0        4.094114   -1.230685   -5.817430
      5          6           0       -1.243274    4.071810   -0.870914
      6          6           0       -1.145190    2.552640   -0.581047
      7          1           0       -0.444532    2.456806    0.260090
      8          6           0       -0.537722    1.727414   -1.720767
      9          1           0       -1.196023    1.783268   -2.599704
     10          6           0        0.864259    2.279137   -2.095055
     11          1           0        1.514082    2.050007   -1.234117
     12          6           0       -1.903893    4.543080    0.462539
     13          1           0       -1.118133    4.388046    1.215956
     14          6           0        0.188877    4.583588   -1.103378
     15          1           0        0.764892    4.453600   -0.175850
     16          1           0        0.198739    5.658082   -1.331009
     17          6           0        1.492291    1.523447   -3.318771
     18          6           0       -2.531257    2.177988   -0.024490
     19          1           0       -2.479796    1.301241    0.627006
     20          1           0       -3.229615    1.934718   -0.835545
     21          6           0        0.882407    3.821736   -2.252037
     22          1           0        0.403580    4.105037   -3.194505
     23          1           0        1.919521    4.168266   -2.326588
     24          6           0       -2.994399    3.459978    0.736609
     25          1           0       -3.975907    3.781900    0.377775
     26          1           0       -3.103186    3.274819    1.810208
     27          6           0       -0.449247    0.230737   -1.356296
     28          1           0       -1.462442   -0.187580   -1.363160
     29          6           0       -2.320139    6.037257    0.610124
     30          1           0       -1.613629    6.617795    0.000000
     31          6           0       -2.130383    4.392141   -2.094172
     32          1           0       -1.752036    3.932655   -3.010902
     33          1           0       -3.157558    4.040801   -1.961644
     34          1           0       -2.169047    5.472551   -2.268142
     35          6           0        1.284650    0.009381   -3.177138
     36          6           0        3.026296    1.807055   -3.347921
     37          1           0        3.423745    1.652689   -2.335050
     38          1           0        3.194867    2.862088   -3.588628
     39          6           0        0.415910   -0.538548   -2.311433
     40          1           0        0.338612   -1.623749   -2.250903
     41          6           0        0.855140    1.977399   -4.660596
     42          1           0        1.130626    3.007876   -4.904065
     43          1           0        1.184340    1.351684   -5.493880
     44          1           0       -0.236504    1.914247   -4.622371
     45          6           0        2.110273   -0.883166   -4.085540
     46          1           0        1.954302   -1.934815   -3.825923
     47          1           0        1.777112   -0.763308   -5.128852
     48          6           0        3.831296    0.931283   -4.320268
     49          1           0        3.541694    1.144284   -5.359921
     50          1           0        4.898961    1.164465   -4.238437
     51          6           0       -3.754063    6.378238    0.134804
     52          1           0       -3.983476    5.846696   -0.794823
     53          1           0       -4.464122    5.998422    0.881719
     54          6           0        3.609899   -0.553968   -4.035500
     55          1           0        3.992217   -0.788634   -3.034395
     56          6           0       -2.124872    6.485705    2.073312
     57          1           0       -2.754596    5.893701    2.749303
     58          1           0       -2.384069    7.539141    2.219355
     59          1           0       -1.084024    6.356754    2.390193
     60          6           0       -4.046181    7.877116   -0.090527
     61          1           0       -5.130857    7.989236   -0.212116
     62          1           0       -3.785366    8.447179    0.809148
     63          6           0       -3.338897    8.478980   -1.316706
     64          1           0       -3.608153    7.883549   -2.201388
     65          1           0       -2.251809    8.375251   -1.200484
     66          6           0       -3.642908    9.964899   -1.623547
     67          1           0       -3.059500   10.211302   -2.523189
     68          6           0       -3.168648   10.909909   -0.506834
     69          1           0       -3.747906   10.771815    0.413342
     70          1           0       -3.281334   11.957402   -0.808979
     71          1           0       -2.112119   10.743957   -0.265360
     72          6           0       -5.121730   10.212518   -1.965271
     73          1           0       -5.770827   10.054812   -1.096327
     74          1           0       -5.275175   11.243623   -2.303685
     75          1           0       -5.464039    9.544466   -2.764458
 ---------------------------------------------------------------------

 SCF Done:  E(RHF) =  -1198.92228381     A.U. after    9 cycles

 Alpha  occ. eigenvalues --  -20.56052 -20.55365 -11.28226 -11.27787 -11.25042
 Alpha  occ. eigenvalues --  -11.24479 -11.23208 -11.23081 -11.23058 -11.22716
 Alpha  occ. eigenvalues --  -11.22577 -11.22441 -11.22282 -11.22271 -11.22212
 Alpha  occ. eigenvalues --  -11.22187 -11.22045 -11.21628 -11.21622 -11.21517
 Alpha  occ. eigenvalues --  -11.21414 -11.21247 -11.21063 -11.21042 -11.20982
 Alpha  occ. eigenvalues --  -11.20975 -11.20864 -11.20799 -11.20779  -1.35434
 Alpha  occ. eigenvalues --   -1.34446  -1.16013  -1.13889  -1.09539  -1.07987
 Alpha  occ. eigenvalues --   -1.06041  -1.05636  -1.03042  -1.01653  -0.99490
 Alpha  occ. eigenvalues --   -0.97963  -0.96156  -0.92686  -0.92418  -0.92075
 Alpha  occ. eigenvalues --   -0.91374  -0.90678  -0.86492  -0.84353  -0.83082
 Alpha  occ. eigenvalues --   -0.82654  -0.79509  -0.78093  -0.77487  -0.74481
 Alpha  occ. eigenvalues --   -0.72338  -0.71579  -0.69789  -0.67609  -0.66498
 Alpha  occ. eigenvalues --   -0.64449  -0.64080  -0.63870  -0.63190  -0.62684
 Alpha  occ. eigenvalues --   -0.62156  -0.61204  -0.60999  -0.60343  -0.59222
 Alpha  occ. eigenvalues --   -0.58880  -0.58741  -0.58094  -0.57253  -0.56312
 Alpha  occ. eigenvalues --   -0.56034  -0.55761  -0.55473  -0.54982  -0.54489
 Alpha  occ. eigenvalues --   -0.53910  -0.53678  -0.53472  -0.52983  -0.52619
 Alpha  occ. eigenvalues --   -0.52176  -0.52049  -0.51132  -0.50703  -0.49781
 Alpha  occ. eigenvalues --   -0.48952  -0.48380  -0.48143  -0.48042  -0.47807
 Alpha  occ. eigenvalues --   -0.46964  -0.46597  -0.45987  -0.45689  -0.45335
 Alpha  occ. eigenvalues --   -0.45040  -0.44735  -0.44316  -0.43554  -0.43251
 Alpha  occ. eigenvalues --   -0.42807  -0.42350  -0.42038  -0.41531  -0.40047
 Alpha  occ. eigenvalues --   -0.38428  -0.34569
 Alpha virt. eigenvalues --    0.16194   0.20518   0.21289   0.21383   0.22536
 Alpha virt. eigenvalues --    0.22835   0.23852   0.24077   0.24658   0.25265
 Alpha virt. eigenvalues --    0.25616   0.26195   0.26421   0.26962   0.27140

 Mulliken atomic charges:
              1
     1  O   -0.768544
     2  H    0.433646
     3  O   -0.758640
     4  H    0.428724
     5  C   -0.032016
     6  C   -0.144835
     7  H    0.175303
     8  C   -0.187631
     9  H    0.163553
    10  C   -0.163909
    11  H    0.147789
    12  C   -0.147993
    13  H    0.157640
    14  C   -0.295830
    15  H    0.152777
    16  H    0.157410
    17  C   -0.040276
    18  C   -0.327887
    19  H    0.188309
    20  H    0.150563
    21  C   -0.327312
    22  H    0.165591
    23  H    0.165270
    24  C   -0.330012
    25  H    0.165202
    26  H    0.165751
    27  C    0.177570
    28  H    0.180248
    29  C   -0.148642
    30  H    0.160902
    31  C   -0.491565
    32  H    0.159935
    33  H    0.165421
    34  H    0.165529
    35  C    0.072853
    36  C   -0.324349
    37  H    0.161690
    38  H    0.174781
    39  C   -0.286868
    40  H    0.192162
    41  C   -0.480692
    42  H    0.167140
    43  H    0.162842
    44  H    0.171568
    45  C   -0.367258
    46  H    0.194146
    47  H    0.155255
    48  C   -0.340883
    49  H    0.145534
    50  H    0.184011
    51  C   -0.317585
    52  H    0.162432
    53  H    0.156407
    54  C    0.194445
    55  H    0.171238
    56  C   -0.482575
    57  H    0.155558
    58  H    0.160448
    59  H    0.157621
    60  C   -0.317372
    61  H    0.159661
    62  H    0.158292
    63  C   -0.305688
    64  H    0.150864
    65  H    0.153377
    66  C   -0.145357
    67  H    0.154456
    68  C   -0.476478
    69  H    0.156581
    70  H    0.158543
    71  H    0.156298
    72  C   -0.476687
    73  H    0.156700
    74  H    0.158304
    75  H    0.156542
 Sum of Mulliken atomic charges =   0.00000

 Dipole moment (field-independent basis, Debye):
    X=              0.0322    Y=              1.7000    Z=             -2.0724  Tot=              2.6806
 Quadrupole moment (field-independent basis, Debye-Ang):
   XX=           -193.7546   YY=           -188.1202   ZZ=           -175.6215
   XY=              8.1236   XZ=              3.2443   YZ=             -6.7047

 Normal termination of Gaussian 09 at Thu May 18 13:05:48 2017.
