 Gaussian 09, Revision C.01,
 Gaussian 09:  EM64L-G09RevC.01 23-Sep-2011

 ----------------------------------------------------------------------
 #P HF/6-31G* SCF(Conver=6) NoSymm Test Pop=mk IOp(6/33=2) GFInput GFPr
 int
 ----------------------------------------------------------------------

 (Enter /scratch/michal/g09/l101.exe)
 ----------------------------------------------
 MEP - Input generated by R.E.D.-III.x MOLECULE
 ----------------------------------------------
 Charge =  0 Multiplicity = 1

                          Input orientation:
 ---------------------------------------------------------------------
 Center     Atomic      Atomic             Coordinates (Angstroms)
 Number     Number       Type             X           Y           Z
 ---------------------------------------------------------------------
      1          8           0        0.000000    0.000000    0.000000
      2          1           0       -0.229868    0.584641   -0.734532
      3          8           0       -2.384714    6.281097    0.000000
      4          1           0       -2.155299    6.852065    0.746686
      5          6           0        4.251261    0.526426    0.722368
      6          6           0        2.752037    0.136047    0.754685
      7          1           0        2.489535   -0.113528   -0.282826
      8          6           0        1.808161    1.274507    1.157214
      9          1           0        2.020515    1.572044    2.194251
     10          6           0        2.011041    2.496818    0.221547
     11          1           0        1.630351    2.183198   -0.764724
     12          6           0        4.863587   -0.847647    0.305941
     13          1           0        4.527914   -0.984616   -0.732169
     14          6           0        4.406580    1.649027   -0.318024
     15          1           0        4.138928    1.251931   -1.307769
     16          1           0        5.448369    1.989969   -0.387884
     17          6           0        1.131206    3.723699    0.649819
     18          6           0        2.718293   -1.192550    1.532617
     19          1           0        1.851803   -1.799384    1.255666
     20          1           0        2.653792   -1.015390    2.613904
     21          6           0        3.504959    2.856388    0.013620
     22          1           0        3.897563    3.347139    0.909638
     23          1           0        3.593495    3.591920   -0.794041
     24          6           0        4.070302   -1.881532    1.165582
     25          1           0        4.619419   -2.151268    2.072075
     26          1           0        3.911158   -2.812607    0.611957
     27          6           0        0.332509    0.823652    1.142603
     28          1           0        0.166367    0.154942    1.995155
     29          6           0        6.412883   -0.992175    0.258680
     30          1           0        6.814130    0.000000    0.000000
     31          6           0        4.778901    0.995343    2.096258
     32          1           0        4.251245    1.880186    2.461319
     33          1           0        4.675486    0.223052    2.863618
     34          1           0        5.840275    1.258745    2.030618
     35          6           0       -0.290989    3.265590    1.000269
     36          6           0        1.044696    4.719368   -0.548267
     37          1           0        0.798717    4.147279   -1.453786
     38          1           0        2.030493    5.163797   -0.721699
     39          6           0       -0.618625    1.981994    1.222771
     40          1           0       -1.654731    1.728681    1.445509
     41          6           0        1.726187    4.450742    1.886775
     42          1           0        2.661778    4.960184    1.637408
     43          1           0        1.041717    5.208738    2.275625
     44          1           0        1.924884    3.748343    2.701825
     45          6           0       -1.352466    4.345400    1.105207
     46          1           0       -2.337954    3.893715    1.255189
     47          1           0       -1.157051    4.975283    1.987794
     48          6           0        0.005666    5.839696   -0.388688
     49          1           0        0.282577    6.505902    0.441726
     50          1           0       -0.019431    6.459107   -1.292389
     51          6           0        7.086627   -1.425444    1.582980
     52          1           0        6.601242   -0.936920    2.434566
     53          1           0        6.929528   -2.503002    1.723358
     54          6           0       -1.385853    5.265675   -0.124492
     55          1           0       -1.705203    4.682104   -0.996776
     56          6           0        6.811907   -1.949885   -0.883000
     57          1           0        6.389238   -2.948967   -0.718395
     58          1           0        7.897963   -2.059272   -0.965764
     59          1           0        6.443167   -1.588357   -1.849303
     60          6           0        8.590165   -1.106183    1.649971
     61          1           0        9.126205   -1.626477    0.847167
     62          1           0        8.727115   -0.033634    1.451740
     63          6           0        9.249183   -1.425467    3.004413
     64          1           0        8.737360   -0.846542    3.786920
     65          1           0       10.285978   -1.057746    2.985401
     66          6           0        9.274411   -2.907907    3.434472
     67          1           0        8.238351   -3.273727    3.472515
     68          6           0        9.860448   -3.038854    4.849526
     69          1           0       10.901665   -2.692225    4.875161
     70          1           0        9.848998   -4.080343    5.190675
     71          1           0        9.293666   -2.442356    5.573711
     72          6           0       10.050700   -3.792627    2.446134
     73          1           0       11.089994   -3.451525    2.351854
     74          1           0       10.073074   -4.833779    2.787611
     75          1           0        9.605347   -3.784454    1.446102
 ---------------------------------------------------------------------

 SCF Done:  E(RHF) =  -1198.92458726     A.U. after    9 cycles

 Alpha  occ. eigenvalues --  -20.56063 -20.55388 -11.28238 -11.27814 -11.25057
 Alpha  occ. eigenvalues --  -11.24499 -11.23229 -11.23094 -11.23075 -11.22726
 Alpha  occ. eigenvalues --  -11.22461 -11.22358 -11.22321 -11.22288 -11.22269
 Alpha  occ. eigenvalues --  -11.22243 -11.22064 -11.21652 -11.21644 -11.21518
 Alpha  occ. eigenvalues --  -11.21461 -11.21169 -11.21035 -11.21016 -11.20994
 Alpha  occ. eigenvalues --  -11.20972 -11.20948 -11.20864 -11.20823  -1.35446
 Alpha  occ. eigenvalues --   -1.34470  -1.16040  -1.13925  -1.09595  -1.08031
 Alpha  occ. eigenvalues --   -1.06062  -1.05671  -1.03073  -1.01686  -0.99649
 Alpha  occ. eigenvalues --   -0.97994  -0.96206  -0.92719  -0.92353  -0.92112
 Alpha  occ. eigenvalues --   -0.91314  -0.90684  -0.86508  -0.83724  -0.82753
 Alpha  occ. eigenvalues --   -0.82654  -0.79842  -0.78254  -0.77508  -0.74852
 Alpha  occ. eigenvalues --   -0.72660  -0.71700  -0.69809  -0.67627  -0.66494
 Alpha  occ. eigenvalues --   -0.64426  -0.64113  -0.64031  -0.63735  -0.62372
 Alpha  occ. eigenvalues --   -0.62049  -0.61217  -0.61076  -0.60060  -0.59414
 Alpha  occ. eigenvalues --   -0.58986  -0.58433  -0.57565  -0.57306  -0.56317
 Alpha  occ. eigenvalues --   -0.56015  -0.55796  -0.55299  -0.54943  -0.54329
 Alpha  occ. eigenvalues --   -0.53904  -0.53682  -0.53555  -0.52993  -0.52855
 Alpha  occ. eigenvalues --   -0.52432  -0.52032  -0.51131  -0.50499  -0.50090
 Alpha  occ. eigenvalues --   -0.48465  -0.48403  -0.48236  -0.47978  -0.47658
 Alpha  occ. eigenvalues --   -0.46903  -0.46693  -0.46387  -0.45734  -0.45267
 Alpha  occ. eigenvalues --   -0.45201  -0.44750  -0.44279  -0.43607  -0.43338
 Alpha  occ. eigenvalues --   -0.42825  -0.42362  -0.42021  -0.41746  -0.40076
 Alpha  occ. eigenvalues --   -0.38484  -0.34587
 Alpha virt. eigenvalues --    0.16172   0.20456   0.21304   0.21408   0.22759
 Alpha virt. eigenvalues --    0.22881   0.23708   0.24137   0.24444   0.25271
 Alpha virt. eigenvalues --    0.25577   0.26268   0.26517   0.27293   0.27377

 Mulliken atomic charges:
              1
     1  O   -0.768564
     2  H    0.433740
     3  O   -0.758622
     4  H    0.428742
     5  C   -0.032231
     6  C   -0.144932
     7  H    0.175488
     8  C   -0.187544
     9  H    0.163503
    10  C   -0.163982
    11  H    0.147796
    12  C   -0.148896
    13  H    0.157832
    14  C   -0.295909
    15  H    0.152914
    16  H    0.158327
    17  C   -0.040250
    18  C   -0.327967
    19  H    0.188407
    20  H    0.150565
    21  C   -0.327535
    22  H    0.165421
    23  H    0.165520
    24  C   -0.329748
    25  H    0.164820
    26  H    0.165931
    27  C    0.177551
    28  H    0.180247
    29  C   -0.143357
    30  H    0.155647
    31  C   -0.488589
    32  H    0.160632
    33  H    0.165731
    34  H    0.161793
    35  C    0.072914
    36  C   -0.324493
    37  H    0.161734
    38  H    0.174883
    39  C   -0.286983
    40  H    0.192209
    41  C   -0.480681
    42  H    0.167091
    43  H    0.162934
    44  H    0.171573
    45  C   -0.367231
    46  H    0.194169
    47  H    0.155281
    48  C   -0.340911
    49  H    0.145582
    50  H    0.184062
    51  C   -0.318374
    52  H    0.162417
    53  H    0.156860
    54  C    0.194451
    55  H    0.171257
    56  C   -0.482565
    57  H    0.155519
    58  H    0.160224
    59  H    0.158210
    60  C   -0.312690
    61  H    0.158175
    62  H    0.152624
    63  C   -0.297685
    64  H    0.150563
    65  H    0.150495
    66  C   -0.151591
    67  H    0.156574
    68  C   -0.471796
    69  H    0.152064
    70  H    0.158225
    71  H    0.157242
    72  C   -0.476791
    73  H    0.151695
    74  H    0.158525
    75  H    0.161758
 Sum of Mulliken atomic charges =   0.00000

 Dipole moment (field-independent basis, Debye):
    X=              1.5168    Y=              1.8728    Z=              0.8911  Tot=              2.5694
 Quadrupole moment (field-independent basis, Debye-Ang):
   XX=           -193.8099   YY=           -182.7891   ZZ=           -183.3036
   XY=             11.1290   XZ=             -3.1214   YZ=              7.3122

 Normal termination of Gaussian 09 at Thu May 18 13:26:02 2017.
