 Gaussian 09, Revision C.01,
 Gaussian 09:  EM64L-G09RevC.01 23-Sep-2011

 ----------------------------------------------------------------------
 #P HF/6-31G* SCF(Conver=6) NoSymm Test Pop=mk IOp(6/33=2) GFInput GFPr
 int
 ----------------------------------------------------------------------

 (Enter /scratch/michal/g09/l101.exe)
 ----------------------------------------------
 MEP - Input generated by R.E.D.-III.x MOLECULE
 ----------------------------------------------
 Charge =  0 Multiplicity = 1

                          Input orientation:
 ---------------------------------------------------------------------
 Center     Atomic      Atomic             Coordinates (Angstroms)
 Number     Number       Type             X           Y           Z
 ---------------------------------------------------------------------
      1          8           0        0.000000    0.000000    0.000000
      2          1           0       -0.466610    0.460550   -0.710196
      3          8           0       -3.214389    5.896006    0.000000
      4          1           0       -2.910285    6.578204    0.615056
      5          6           0        4.193921    1.099793   -0.356218
      6          6           0        2.801436    0.554408    0.066389
      7          1           0        2.355387    0.147514   -0.852256
      8          6           0        1.816435    1.613796    0.575172
      9          1           0        2.210365    2.056332    1.501627
     10          6           0        1.626793    2.730542   -0.482666
     11          1           0        1.092362    2.259920   -1.324709
     12          6           0        4.891318   -0.244322   -0.764216
     13          1           0        4.432317   -0.538524   -1.719545
     14          6           0        3.938202    2.112479   -1.490797
     15          1           0        3.510213    1.576455   -2.350133
     16          1           0        4.866651    2.573903   -1.842478
     17          6           0        0.693425    3.883987    0.027240
     18          6           0        3.113313   -0.655268    0.959469
     19          1           0        2.288582   -1.373215    0.973379
     20          1           0        3.287069   -0.343756    1.997509
     21          6           0        2.975287    3.234223   -1.050322
     22          1           0        3.484690    3.852214   -0.303742
     23          1           0        2.790581    3.890904   -1.908364
     24          6           0        4.406757   -1.248234    0.334054
     25          1           0        5.182773   -1.379804    1.097534
     26          1           0        4.226223   -2.239194   -0.093775
     27          6           0        0.456597    0.989229    0.952669
     28          1           0        0.583491    0.413076    1.876422
     29          6           0        6.427408   -0.277943   -0.960455
     30          1           0        6.885756    0.000000    0.000000
     31          6           0        4.955246    1.766973    0.811844
     32          1           0        4.390657    2.586513    1.263868
     33          1           0        5.183262    1.054812    1.610685
     34          1           0        5.907086    2.184318    0.466051
     35          6           0       -0.531930    3.302902    0.745286
     36          6           0        0.196714    4.705143   -1.202877
     37          1           0       -0.159239    3.999502   -1.966445
     38          1           0        1.043121    5.239977   -1.646855
     39          6           0       -0.610739    2.025420    1.152965
     40          1           0       -1.522776    1.677040    1.636836
     41          6           0        1.435301    4.825961    1.014329
     42          1           0        2.208353    5.407967    0.503720
     43          1           0        0.751431    5.539397    1.480757
     44          1           0        1.909572    4.259868    1.821625
     45          6           0       -1.689430    4.250720    1.000844
     46          1           0       -2.539574    3.704872    1.421583
     47          1           0       -1.396300    5.003436    1.750063
     48          6           0       -0.932972    5.702725   -0.904660
     49          1           0       -0.578306    6.495233   -0.229236
     50          1           0       -1.249941    6.197758   -1.829560
     51          6           0        6.948878   -1.708604   -1.267425
     52          1           0        8.047140   -1.658982   -1.301724
     53          1           0        6.707290   -2.365018   -0.423980
     54          6           0       -2.130869    5.001437   -0.264754
     55          1           0       -2.547969    4.280288   -0.978474
     56          6           0        6.941922    0.720202   -2.014965
     57          1           0        6.404508    0.627897   -2.965251
     58          1           0        8.005863    0.548726   -2.217442
     59          1           0        6.839110    1.755658   -1.680567
     60          6           0        6.452948   -2.350865   -2.574344
     61          1           0        5.368371   -2.509110   -2.529109
     62          1           0        6.618981   -1.656559   -3.407551
     63          6           0        7.156923   -3.675278   -2.927048
     64          1           0        8.235854   -3.481242   -3.014790
     65          1           0        6.824942   -3.994690   -3.926194
     66          6           0        6.952302   -4.856707   -1.954778
     67          1           0        7.278871   -4.541428   -0.953495
     68          6           0        7.833379   -6.045099   -2.372526
     69          1           0        7.553808   -6.407385   -3.370308
     70          1           0        7.729114   -6.883298   -1.674079
     71          1           0        8.892671   -5.765296   -2.405277
     72          6           0        5.480073   -5.287236   -1.857776
     73          1           0        5.100192   -5.597545   -2.839979
     74          1           0        5.364340   -6.136007   -1.174173
     75          1           0        4.836384   -4.480938   -1.491913
 ---------------------------------------------------------------------

 SCF Done:  E(RHF) =  -1198.92646944     A.U. after    9 cycles

 Alpha  occ. eigenvalues --  -20.56052 -20.55390 -11.28228 -11.27811 -11.25024
 Alpha  occ. eigenvalues --  -11.24481 -11.23139 -11.23077 -11.23061 -11.22713
 Alpha  occ. eigenvalues --  -11.22552 -11.22450 -11.22267 -11.22232 -11.22222
 Alpha  occ. eigenvalues --  -11.22211 -11.21975 -11.21771 -11.21526 -11.21372
 Alpha  occ. eigenvalues --  -11.21292 -11.21220 -11.21106 -11.21055 -11.20949
 Alpha  occ. eigenvalues --  -11.20873 -11.20842 -11.20828 -11.20723  -1.35434
 Alpha  occ. eigenvalues --   -1.34471  -1.16013  -1.13893  -1.09554  -1.07995
 Alpha  occ. eigenvalues --   -1.06036  -1.05649  -1.03088  -1.01610  -0.99427
 Alpha  occ. eigenvalues --   -0.97955  -0.96287  -0.92903  -0.92375  -0.92201
 Alpha  occ. eigenvalues --   -0.90906  -0.90693  -0.86490  -0.84052  -0.82878
 Alpha  occ. eigenvalues --   -0.82620  -0.79306  -0.78284  -0.77137  -0.75242
 Alpha  occ. eigenvalues --   -0.72654  -0.71361  -0.69794  -0.67651  -0.66589
 Alpha  occ. eigenvalues --   -0.64640  -0.64199  -0.63872  -0.63245  -0.62964
 Alpha  occ. eigenvalues --   -0.62015  -0.61225  -0.60881  -0.60467  -0.58904
 Alpha  occ. eigenvalues --   -0.58647  -0.58270  -0.57365  -0.56574  -0.56558
 Alpha  occ. eigenvalues --   -0.56107  -0.55782  -0.55631  -0.54833  -0.54446
 Alpha  occ. eigenvalues --   -0.54121  -0.53742  -0.53327  -0.53013  -0.52898
 Alpha  occ. eigenvalues --   -0.52728  -0.52034  -0.50925  -0.50733  -0.50204
 Alpha  occ. eigenvalues --   -0.48537  -0.48255  -0.48138  -0.47971  -0.47475
 Alpha  occ. eigenvalues --   -0.47036  -0.46597  -0.46229  -0.45551  -0.45267
 Alpha  occ. eigenvalues --   -0.44970  -0.44656  -0.43747  -0.43659  -0.43401
 Alpha  occ. eigenvalues --   -0.42894  -0.42690  -0.42191  -0.41688  -0.40062
 Alpha  occ. eigenvalues --   -0.38370  -0.34573
 Alpha virt. eigenvalues --    0.16193   0.20227   0.21036   0.21376   0.22383
 Alpha virt. eigenvalues --    0.23160   0.23944   0.24225   0.24476   0.25197
 Alpha virt. eigenvalues --    0.25501   0.26093   0.26695   0.27130   0.27659

 Mulliken atomic charges:
              1
     1  O   -0.768528
     2  H    0.433704
     3  O   -0.758642
     4  H    0.428731
     5  C   -0.028667
     6  C   -0.144783
     7  H    0.175308
     8  C   -0.187755
     9  H    0.163100
    10  C   -0.163654
    11  H    0.147602
    12  C   -0.141820
    13  H    0.158740
    14  C   -0.298146
    15  H    0.152368
    16  H    0.164181
    17  C   -0.040250
    18  C   -0.326802
    19  H    0.189089
    20  H    0.150760
    21  C   -0.326959
    22  H    0.164771
    23  H    0.164757
    24  C   -0.339051
    25  H    0.158259
    26  H    0.170704
    27  C    0.176601
    28  H    0.180302
    29  C   -0.147048
    30  H    0.155964
    31  C   -0.489883
    32  H    0.160108
    33  H    0.165888
    34  H    0.161890
    35  C    0.073014
    36  C   -0.324199
    37  H    0.161662
    38  H    0.174711
    39  C   -0.286468
    40  H    0.192158
    41  C   -0.480628
    42  H    0.167385
    43  H    0.162797
    44  H    0.171212
    45  C   -0.367196
    46  H    0.194109
    47  H    0.155287
    48  C   -0.340902
    49  H    0.145583
    50  H    0.184032
    51  C   -0.313235
    52  H    0.150972
    53  H    0.165472
    54  C    0.194422
    55  H    0.171232
    56  C   -0.486528
    57  H    0.157180
    58  H    0.157314
    59  H    0.160782
    60  C   -0.318926
    61  H    0.159014
    62  H    0.160044
    63  C   -0.297539
    64  H    0.150708
    65  H    0.150365
    66  C   -0.152310
    67  H    0.156627
    68  C   -0.471680
    69  H    0.152009
    70  H    0.157891
    71  H    0.157219
    72  C   -0.479403
    73  H    0.151977
    74  H    0.158489
    75  H    0.164507
 Sum of Mulliken atomic charges =   0.00000

 Dipole moment (field-independent basis, Debye):
    X=              1.5292    Y=              2.1616    Z=              0.4353  Tot=              2.6834
 Quadrupole moment (field-independent basis, Debye-Ang):
   XX=           -195.5209   YY=           -180.0963   ZZ=           -182.9660
   XY=             10.3950   XZ=             -0.6687   YZ=              3.9414

 Normal termination of Gaussian 09 at Thu May 18 14:09:29 2017.
