 Gaussian 09, Revision C.01,
 Gaussian 09:  EM64L-G09RevC.01 23-Sep-2011

 ----------------------------------------------------------------------
 #P HF/6-31G* SCF(Conver=6) NoSymm Test Pop=chelpg IOp(6/33=2) GFInput
 GFPrint
 ----------------------------------------------------------------------

 (Enter /scratch/michal/g09/l101.exe)
 ----------------------------------------------
 MEP - Input generated by R.E.D.-III.x MOLECULE
 ----------------------------------------------
 Charge =  0 Multiplicity = 1

                          Input orientation:
 ---------------------------------------------------------------------
 Center     Atomic      Atomic             Coordinates (Angstroms)
 Number     Number       Type             X           Y           Z
 ---------------------------------------------------------------------
      1          6           0        7.517656    2.214821    0.071633
      2          1           0        7.353366    2.185136    1.155731
      3          6           0        6.823364    1.006540   -0.572762
      4          1           0        7.205485    0.080541   -0.131595
      5          1           0        7.106649    0.990223   -1.637793
      6          6           0        5.312311    1.061895   -0.453624
      7          6           0        4.618160    2.359876   -0.881143
      8          6           0        5.411200    3.564890   -0.285394
      9          1           0        5.210701    3.609140    0.794152
     10          1           0        5.027117    4.498107   -0.710134
     11          6           0        6.933006    3.510096   -0.489468
     12          1           0        7.180955    3.581005   -1.559010
     13          1           0        7.406813    4.368568    0.000000
     14          6           0        4.632805    0.000000    0.000000
     15          1           0        5.176416   -0.890439    0.317651
     16          6           0        3.139651   -0.098999    0.108029
     17          1           0        2.855316   -0.189535    1.169108
     18          6           0        2.376181    1.068215   -0.535920
     19          1           0        2.319734    0.854120   -1.608783
     20          6           0        3.157088    2.393148   -0.310366
     21          1           0        3.271132    2.494770    0.781760
     22          6           0        2.342102    3.617671   -0.786033
     23          1           0        2.297230    3.629752   -1.880451
     24          1           0        2.859059    4.538595   -0.494879
     25          6           0        0.905226    3.672279   -0.231318
     26          1           0        0.940257    3.816274    0.858374
     27          1           0        0.407109    4.554774   -0.645404
     28          6           0        0.121867    2.380016   -0.534020
     29          6           0        0.957978    1.202552    0.046326
     30          1           0        1.096804    1.450846    1.113476
     31          6           0        0.000000    0.000000    0.000000
     32          1           0        0.265976   -0.773263    0.725329
     33          1           0        0.030231   -0.481454   -0.982695
     34          6           0       -1.392951    0.627008    0.281264
     35          1           0       -2.116788    0.316985   -0.481728
     36          1           0       -1.798991    0.292993    1.241613
     37          6           0       -1.214752    2.180183    0.261000
     38          1           0       -1.000304    2.512095    1.287793
     39          6           0       -0.126848    2.235802   -2.052700
     40          1           0        0.802990    2.166173   -2.622703
     41          1           0       -0.714516    1.343843   -2.288367
     42          1           0       -0.677022    3.101525   -2.436639
     43          6           0       -2.495804    2.917599   -0.202560
     44          1           0       -2.715322    2.578899   -1.225631
     45          6           0       -2.350749    4.450427   -0.250891
     46          1           0       -1.963872    4.855296    0.690986
     47          1           0       -3.323142    4.920934   -0.439215
     48          1           0       -1.676026    4.772671   -1.048085
     49          6           0        4.634862    2.438148   -2.431043
     50          1           0        4.281269    3.411867   -2.783787
     51          1           0        5.644313    2.299565   -2.827853
     52          1           0        4.004818    1.660510   -2.872251
     53          8           0        2.685682   -1.392774   -0.364457
     54          8           0        2.933233   -1.491832   -1.798109
     55          1           0        3.727455   -2.050727   -1.810663
     56          8           0        8.939138    2.146397   -0.068495
     57          1           0        9.160966    2.199732   -1.008786
     58          6           0       -3.737611    2.519706    0.639863
     59          1           0       -4.613885    3.006386    0.187897
     60          1           0       -3.913527    1.441290    0.541381
     61          6           0       -3.700115    2.877390    2.135212
     62          1           0       -2.850184    2.375230    2.613260
     63          1           0       -3.530020    3.954437    2.252716
     64          6           0       -5.001176    2.480084    2.852053
     65          1           0       -5.166363    1.402394    2.708198
     66          1           0       -5.843187    2.983181    2.354751
     67          6           0       -5.079965    2.784868    4.366224
     68          1           0       -6.070598    2.434958    4.692620
     69          6           0       -4.035602    2.006167    5.183319
     70          1           0       -3.016033    2.342564    4.962278
     71          1           0       -4.198931    2.145086    6.258182
     72          1           0       -4.085897    0.931071    4.974212
     73          6           0       -5.010187    4.290207    4.672493
     74          1           0       -4.025096    4.706557    4.432125
     75          1           0       -5.194326    4.480769    5.736018
     76          1           0       -5.758614    4.849352    4.098613
 ---------------------------------------------------------------------

 SCF Done:  E(RHF) =  -1273.68309192     A.U. after    9 cycles

 Alpha  occ. eigenvalues --  -20.62438 -20.62304 -20.56049 -11.28763 -11.28183
 Alpha  occ. eigenvalues --  -11.24919 -11.24415 -11.23231 -11.23150 -11.22952
 Alpha  occ. eigenvalues --  -11.22670 -11.22656 -11.22612 -11.22413 -11.22330
 Alpha  occ. eigenvalues --  -11.22174 -11.22038 -11.21930 -11.21733 -11.21635
 Alpha  occ. eigenvalues --  -11.21516 -11.21373 -11.21244 -11.21184 -11.20942
 Alpha  occ. eigenvalues --  -11.20939 -11.20885 -11.20817 -11.20764 -11.20394
 Alpha  occ. eigenvalues --   -1.45696  -1.35425  -1.22129  -1.15860  -1.13885
 Alpha  occ. eigenvalues --   -1.09522  -1.08011  -1.05897  -1.05652  -1.03049
 Alpha  occ. eigenvalues --   -1.01623  -0.99406  -0.97847  -0.96308  -0.92797
 Alpha  occ. eigenvalues --   -0.92300  -0.92125  -0.90824  -0.90487  -0.86036
 Alpha  occ. eigenvalues --   -0.84433  -0.83062  -0.82894  -0.78965  -0.78458
 Alpha  occ. eigenvalues --   -0.76812  -0.74597  -0.73777  -0.71658  -0.69407
 Alpha  occ. eigenvalues --   -0.69287  -0.67125  -0.65615  -0.65359  -0.64308
 Alpha  occ. eigenvalues --   -0.63899  -0.63386  -0.62818  -0.62062  -0.61907
 Alpha  occ. eigenvalues --   -0.60906  -0.60138  -0.59720  -0.58905  -0.58438
 Alpha  occ. eigenvalues --   -0.57854  -0.57229  -0.56509  -0.56091  -0.55578
 Alpha  occ. eigenvalues --   -0.55336  -0.54673  -0.54340  -0.53984  -0.53502
 Alpha  occ. eigenvalues --   -0.53300  -0.52841  -0.52685  -0.52186  -0.51720
 Alpha  occ. eigenvalues --   -0.51439  -0.51215  -0.50195  -0.50008  -0.48482
 Alpha  occ. eigenvalues --   -0.48345  -0.47926  -0.47431  -0.47298  -0.46903
 Alpha  occ. eigenvalues --   -0.46722  -0.46230  -0.45940  -0.45228  -0.44976
 Alpha  occ. eigenvalues --   -0.44701  -0.44438  -0.43433  -0.43283  -0.42852
 Alpha  occ. eigenvalues --   -0.42670  -0.42248  -0.41561  -0.40421  -0.38674
 Alpha  occ. eigenvalues --   -0.34423
 Alpha virt. eigenvalues --    0.16139   0.20687   0.21103   0.21524   0.22257
 Alpha virt. eigenvalues --    0.22754   0.22970   0.24226   0.24680   0.25195
 Alpha virt. eigenvalues --    0.25668   0.26134   0.26369   0.27043   0.27323

 Mulliken atomic charges:
              1
     1  C    0.193923
     2  H    0.173812
     3  C   -0.368283
     4  H    0.191935
     5  H    0.155413
     6  C    0.083391
     7  C   -0.042123
     8  C   -0.327313
     9  H    0.165831
    10  H    0.174432
    11  C   -0.341364
    12  H    0.144958
    13  H    0.184004
    14  C   -0.279640
    15  H    0.185815
    16  C    0.190673
    17  H    0.186659
    18  C   -0.182449
    19  H    0.208698
    20  C   -0.168247
    21  H    0.156490
    22  C   -0.327914
    23  H    0.165126
    24  H    0.166848
    25  C   -0.297563
    26  H    0.151206
    27  H    0.164891
    28  C   -0.029089
    29  C   -0.168675
    30  H    0.146714
    31  C   -0.306260
    32  H    0.172551
    33  H    0.178578
    34  C   -0.338794
    35  H    0.160718
    36  H    0.164428
    37  C   -0.140955
    38  H    0.154904
    39  C   -0.488786
    40  H    0.163372
    41  H    0.170154
    42  H    0.160694
    43  C   -0.147266
    44  H    0.157621
    45  C   -0.486203
    46  H    0.156221
    47  H    0.157439
    48  H    0.160985
    49  C   -0.480734
    50  H    0.165839
    51  H    0.159960
    52  H    0.180292
    53  O   -0.393208
    54  O   -0.470592
    55  H    0.458931
    56  O   -0.759092
    57  H    0.428504
    58  C   -0.309271
    59  H    0.152054
    60  H    0.162089
    61  C   -0.321393
    62  H    0.159320
    63  H    0.159955
    64  C   -0.300145
    65  H    0.151661
    66  H    0.151040
    67  C   -0.146035
    68  H    0.155254
    69  C   -0.476163
    70  H    0.154862
    71  H    0.158099
    72  H    0.157194
    73  C   -0.476010
    74  H    0.155314
    75  H    0.157956
    76  H    0.156760
 Sum of Mulliken atomic charges =   0.00000

 Dipole moment (field-independent basis, Debye):
    X=              0.6228    Y=              1.2071    Z=             -1.0830  Tot=              1.7373
 Quadrupole moment (field-independent basis, Debye-Ang):
   XX=           -197.4401   YY=           -188.0787   ZZ=           -188.6897
   XY=             -0.6626   XZ=            -14.8033   YZ=             -3.5537

 Normal termination of Gaussian 09 at Fri Apr 28 13:34:02 2017.
