 Gaussian 09, Revision C.01,
 Gaussian 09:  EM64L-G09RevC.01 23-Sep-2011

 ----------------------------------------------------------------------
 #P HF/6-31G* SCF(Conver=6) NoSymm Test Pop=chelpg IOp(6/33=2) GFInput
 GFPrint
 ----------------------------------------------------------------------

 (Enter /scratch/michal/g09/l101.exe)
 ----------------------------------------------
 MEP - Input generated by R.E.D.-III.x MOLECULE
 ----------------------------------------------
 Charge =  0 Multiplicity = 1

                          Input orientation:
 ---------------------------------------------------------------------
 Center     Atomic      Atomic             Coordinates (Angstroms)
 Number     Number       Type             X           Y           Z
 ---------------------------------------------------------------------
      1          6           0        7.511934    2.215361    0.070527
      2          1           0        7.345451    2.186294    1.154351
      3          6           0        6.820716    1.006014   -0.574244
      4          1           0        7.200554    0.080539   -0.130852
      5          1           0        7.106979    0.986787   -1.638590
      6          6           0        5.309089    1.061630   -0.456175
      7          6           0        4.619533    2.357600   -0.894308
      8          6           0        5.405074    3.564821   -0.293624
      9          1           0        5.199739    3.606344    0.785164
     10          1           0        5.022125    4.498567   -0.718792
     11          6           0        6.927771    3.510992   -0.491723
     12          1           0        7.179676    3.583170   -1.560154
     13          1           0        7.399343    4.369436    0.000000
     14          6           0        4.631566    0.000000    0.000000
     15          1           0        5.170979   -0.893333    0.306783
     16          6           0        3.137846   -0.102139    0.096441
     17          1           0        2.832872   -0.209291    1.149058
     18          6           0        2.376360    1.062445   -0.557774
     19          1           0        2.320968    0.841907   -1.631911
     20          6           0        3.153896    2.391314   -0.340548
     21          1           0        3.253761    2.503771    0.751403
     22          6           0        2.337516    3.604814   -0.841593
     23          1           0        2.298544    3.597121   -1.936210
     24          1           0        2.852481    4.531026   -0.564630
     25          6           0        0.898017    3.668104   -0.295292
     26          1           0        0.927287    3.831583    0.791739
     27          1           0        0.400504    4.542050   -0.727634
     28          6           0        0.117112    2.369788   -0.578680
     29          6           0        0.956203    1.204182    0.020669
     30          1           0        1.096678    1.471177    1.082176
     31          6           0        0.000000    0.000000    0.000000
     32          1           0        0.266954   -0.752334    0.748762
     33          1           0        0.030519   -0.503705   -0.971311
     34          6           0       -1.394899    0.628307    0.268978
     35          1           0       -2.116502    0.302649   -0.489444
     36          1           0       -1.801500    0.311215    1.234723
     37          6           0       -1.219009    2.180903    0.220123
     38          1           0       -1.005416    2.531216    1.240861
     39          6           0       -0.131129    2.201294   -2.094932
     40          1           0        0.798957    2.130430   -2.664423
     41          1           0       -0.713573    1.302446   -2.318138
     42          1           0       -0.686950    3.057518   -2.491449
     43          6           0       -2.501594    2.907079   -0.256602
     44          1           0       -2.721520    2.548533   -1.272794
     45          6           0       -2.358183    4.438778   -0.334598
     46          1           0       -1.971001    4.862521    0.598738
     47          1           0       -3.331188    4.904297   -0.531407
     48          1           0       -1.684407    4.746182   -1.138334
     49          6           0        4.651048    2.434690   -2.444270
     50          1           0        4.310123    3.411083   -2.802547
     51          1           0        5.662333    2.284958   -2.831179
     52          1           0        4.018940    1.662311   -2.892427
     53          8           0        2.680773   -1.287460   -0.602786
     54          8           0        3.152162   -2.452475    0.139382
     55          1           0        2.304602   -2.820686    0.438706
     56          8           0        8.934333    2.151429   -0.066188
     57          1           0        9.155697    2.166539   -1.007970
     58          6           0       -3.742030    2.523560    0.594572
     59          1           0       -4.618631    3.002545    0.135381
     60          1           0       -3.918797    1.443687    0.515127
     61          6           0       -3.703065    2.908281    2.082717
     62          1           0       -2.863687    2.402597    2.579775
     63          1           0       -3.516133    3.984112    2.180228
     64          6           0       -5.003567    2.540385    2.813559
     65          1           0       -5.212861    1.475041    2.639420
     66          1           0       -5.842963    3.091230    2.361962
     67          6           0       -5.004288    2.793313    4.334987
     68          1           0       -4.138668    2.261787    4.760196
     69          6           0       -4.860691    4.283183    4.686065
     70          1           0       -5.688551    4.864141    4.258855
     71          1           0       -4.876897    4.432761    5.771666
     72          1           0       -3.925034    4.708214    4.309311
     73          6           0       -6.272636    2.209928    4.977829
     74          1           0       -7.171332    2.704275    4.587064
     75          1           0       -6.266428    2.345425    6.065383
     76          1           0       -6.367712    1.137292    4.773548
 ---------------------------------------------------------------------

 SCF Done:  E(RHF) =  -1273.68441670     A.U. after    9 cycles

 Alpha  occ. eigenvalues --  -20.62438 -20.62316 -20.55611 -11.28600 -11.27713
 Alpha  occ. eigenvalues --  -11.24660 -11.23637 -11.23354 -11.23098 -11.23074
 Alpha  occ. eigenvalues --  -11.22712 -11.22629 -11.22596 -11.22505 -11.22313
 Alpha  occ. eigenvalues --  -11.22254 -11.22244 -11.22092 -11.21878 -11.21860
 Alpha  occ. eigenvalues --  -11.21821 -11.21667 -11.21626 -11.21607 -11.21583
 Alpha  occ. eigenvalues --  -11.21467 -11.21238 -11.21164 -11.21159 -11.21155
 Alpha  occ. eigenvalues --   -1.45731  -1.34974  -1.22361  -1.15884  -1.13957
 Alpha  occ. eigenvalues --   -1.09825  -1.08195  -1.05973  -1.05482  -1.03194
 Alpha  occ. eigenvalues --   -1.01637  -0.99748  -0.98006  -0.96265  -0.93160
 Alpha  occ. eigenvalues --   -0.92509  -0.92142  -0.91095  -0.90835  -0.85858
 Alpha  occ. eigenvalues --   -0.84179  -0.83001  -0.82754  -0.79202  -0.78233
 Alpha  occ. eigenvalues --   -0.76937  -0.76099  -0.74010  -0.72153  -0.70789
 Alpha  occ. eigenvalues --   -0.67864  -0.66616  -0.66127  -0.65174  -0.64845
 Alpha  occ. eigenvalues --   -0.64059  -0.63634  -0.62536  -0.61910  -0.61380
 Alpha  occ. eigenvalues --   -0.60914  -0.60191  -0.59630  -0.59271  -0.58820
 Alpha  occ. eigenvalues --   -0.57918  -0.57762  -0.56641  -0.55998  -0.55755
 Alpha  occ. eigenvalues --   -0.55287  -0.54813  -0.54668  -0.53900  -0.53742
 Alpha  occ. eigenvalues --   -0.53454  -0.53109  -0.52839  -0.52480  -0.52254
 Alpha  occ. eigenvalues --   -0.51678  -0.50795  -0.50133  -0.49506  -0.48843
 Alpha  occ. eigenvalues --   -0.48446  -0.48355  -0.47760  -0.47554  -0.47289
 Alpha  occ. eigenvalues --   -0.46748  -0.46177  -0.45465  -0.45355  -0.45102
 Alpha  occ. eigenvalues --   -0.44991  -0.44834  -0.44056  -0.43788  -0.43308
 Alpha  occ. eigenvalues --   -0.42722  -0.42302  -0.41834  -0.40709  -0.39050
 Alpha  occ. eigenvalues --   -0.33832
 Alpha virt. eigenvalues --    0.17012   0.20350   0.20931   0.21602   0.22239
 Alpha virt. eigenvalues --    0.22521   0.22936   0.23854   0.24535   0.24795
 Alpha virt. eigenvalues --    0.25343   0.25718   0.26139   0.26934   0.27086

 Mulliken atomic charges:
              1
     1  C    0.193737
     2  H    0.172294
     3  C   -0.366688
     4  H    0.195129
     5  H    0.154585
     6  C    0.068997
     7  C   -0.040908
     8  C   -0.326205
     9  H    0.164422
    10  H    0.171807
    11  C   -0.339549
    12  H    0.144655
    13  H    0.182370
    14  C   -0.250072
    15  H    0.212721
    16  C    0.190040
    17  H    0.166227
    18  C   -0.189337
    19  H    0.191588
    20  C   -0.164926
    21  H    0.158577
    22  C   -0.328854
    23  H    0.165747
    24  H    0.168836
    25  C   -0.298134
    26  H    0.152184
    27  H    0.165894
    28  C   -0.029974
    29  C   -0.163591
    30  H    0.150896
    31  C   -0.302457
    32  H    0.150808
    33  H    0.175654
    34  C   -0.338417
    35  H    0.162161
    36  H    0.165236
    37  C   -0.140534
    38  H    0.157085
    39  C   -0.489282
    40  H    0.164555
    41  H    0.167657
    42  H    0.163271
    43  C   -0.148222
    44  H    0.158019
    45  C   -0.486863
    46  H    0.157053
    47  H    0.158697
    48  H    0.161871
    49  C   -0.478162
    50  H    0.163830
    51  H    0.163499
    52  H    0.174179
    53  O   -0.394823
    54  O   -0.469431
    55  H    0.460468
    56  O   -0.759755
    57  H    0.428143
    58  C   -0.310288
    59  H    0.153990
    60  H    0.161031
    61  C   -0.316346
    62  H    0.152682
    63  H    0.161261
    64  C   -0.294837
    65  H    0.151735
    66  H    0.148164
    67  C   -0.147196
    68  H    0.150289
    69  C   -0.476261
    70  H    0.152160
    71  H    0.158600
    72  H    0.161624
    73  C   -0.472547
    74  H    0.153089
    75  H    0.158398
    76  H    0.157745
 Sum of Mulliken atomic charges =   0.00000

 Dipole moment (field-independent basis, Debye):
    X=             -2.2336    Y=              1.3929    Z=             -0.2682  Tot=              2.6460
 Quadrupole moment (field-independent basis, Debye-Ang):
   XX=           -216.3460   YY=           -187.7088   ZZ=           -188.6741
   XY=              6.1885   XZ=             -9.7319   YZ=             -7.5474

 Normal termination of Gaussian 09 at Fri Apr 28 13:39:24 2017.
