 Gaussian 09, Revision C.01,
 Gaussian 09:  EM64L-G09RevC.01 23-Sep-2011

 ----------------------------------------------------------------------
 #P HF/6-31G* SCF(Conver=6) NoSymm Test Pop=chelpg IOp(6/33=2) GFInput
 GFPrint
 ----------------------------------------------------------------------

 (Enter /scratch/michal/g09/l101.exe)
 ----------------------------------------------
 MEP - Input generated by R.E.D.-III.x MOLECULE
 ----------------------------------------------
 Charge =  0 Multiplicity = 1

                          Input orientation:
 ---------------------------------------------------------------------
 Center     Atomic      Atomic             Coordinates (Angstroms)
 Number     Number       Type             X           Y           Z
 ---------------------------------------------------------------------
      1          6           0        7.509875    2.216842    0.074724
      2          1           0        7.340122    2.189566    1.158084
      3          6           0        6.820828    1.006255   -0.569952
      4          1           0        7.199849    0.081639   -0.124065
      5          1           0        7.110018    0.985393   -1.633447
      6          6           0        5.308919    1.061455   -0.455749
      7          6           0        4.619803    2.356447   -0.897339
      8          6           0        5.403812    3.565301   -0.297871
      9          1           0        5.195683    3.609749    0.780281
     10          1           0        5.021851    4.497916   -0.726465
     11          6           0        6.927076    3.511284   -0.491524
     12          1           0        7.182111    3.581666   -1.559340
     13          1           0        7.397024    4.370736    0.000000
     14          6           0        4.630776    0.000000    0.000000
     15          1           0        5.169931   -0.892747    0.308952
     16          6           0        3.136987   -0.102618    0.093835
     17          1           0        2.830596   -0.210050    1.146003
     18          6           0        2.375984    1.061697   -0.561359
     19          1           0        2.320348    0.840064   -1.635306
     20          6           0        3.153379    2.390756   -0.345464
     21          1           0        3.251975    2.505030    0.746394
     22          6           0        2.337031    3.603021   -0.849321
     23          1           0        2.297608    3.592369   -1.943937
     24          1           0        2.852241    4.529900   -0.575086
     25          6           0        0.897917    3.667821   -0.302257
     26          1           0        0.927837    3.833640    0.784388
     27          1           0        0.400346    4.540961   -0.736152
     28          6           0        0.116337    2.369140   -0.582445
     29          6           0        0.956121    1.204279    0.017555
     30          1           0        1.097530    1.472844    1.078545
     31          6           0        0.000000    0.000000    0.000000
     32          1           0        0.267773   -0.750841    0.749994
     33          1           0        0.029458   -0.505717   -0.970302
     34          6           0       -1.394590    0.628786    0.269465
     35          1           0       -2.116716    0.302749   -0.488317
     36          1           0       -1.800661    0.312345    1.235640
     37          6           0       -1.218371    2.181256    0.219468
     38          1           0       -1.000999    2.531668    1.239249
     39          6           0       -0.134052    2.198395   -2.097985
     40          1           0        0.795464    2.127051   -2.668345
     41          1           0       -0.716612    1.299061   -2.318838
     42          1           0       -0.690606    3.053904   -2.495000
     43          6           0       -2.501386    2.907963   -0.255354
     44          1           0       -2.718985    2.553013   -1.273273
     45          6           0       -2.359021    4.440066   -0.326874
     46          1           0       -1.978543    4.859942    0.610992
     47          1           0       -3.331215    4.905317   -0.528332
     48          1           0       -1.680628    4.751682   -1.125027
     49          6           0        4.653396    2.430348   -2.447374
     50          1           0        4.309873    3.404901   -2.808164
     51          1           0        5.665661    2.282930   -2.832730
     52          1           0        4.024372    1.654936   -2.894579
     53          8           0        2.681038   -1.287903   -0.606250
     54          8           0        3.151411   -2.453009    0.136371
     55          1           0        2.303533   -2.820667    0.435487
     56          8           0        8.932678    2.153044   -0.057692
     57          1           0        9.156796    2.166481   -0.998849
     58          6           0       -3.745753    2.522043    0.590731
     59          1           0       -4.617313    2.991188    0.115751
     60          1           0       -3.914489    1.440013    0.518160
     61          6           0       -3.708816    2.912974    2.077727
     62          1           0       -2.818310    2.476820    2.547955
     63          1           0       -3.597425    3.999382    2.178799
     64          6           0       -4.935847    2.439851    2.880628
     65          1           0       -4.764448    2.660167    3.944841
     66          1           0       -4.999999    1.344567    2.805400
     67          6           0       -6.303539    3.035549    2.483467
     68          1           0       -6.486449    2.806006    1.424056
     69          6           0       -7.426125    2.371870    3.297336
     70          1           0       -7.300824    2.569195    4.369838
     71          1           0       -8.410482    2.753188    3.002655
     72          1           0       -7.431915    1.284717    3.157780
     73          6           0       -6.348692    4.562789    2.649982
     74          1           0       -6.149628    4.846655    3.691685
     75          1           0       -7.335756    4.956490    2.382001
     76          1           0       -5.610504    5.069727    2.020192
 ---------------------------------------------------------------------

 SCF Done:  E(RHF) =  -1273.68268640     A.U. after    9 cycles

 Alpha  occ. eigenvalues --  -20.62435 -20.62315 -20.55610 -11.28598 -11.27712
 Alpha  occ. eigenvalues --  -11.24660 -11.23638 -11.23352 -11.23105 -11.23073
 Alpha  occ. eigenvalues --  -11.22712 -11.22619 -11.22522 -11.22503 -11.22313
 Alpha  occ. eigenvalues --  -11.22255 -11.22246 -11.22093 -11.21877 -11.21860
 Alpha  occ. eigenvalues --  -11.21825 -11.21705 -11.21643 -11.21610 -11.21571
 Alpha  occ. eigenvalues --  -11.21470 -11.21243 -11.21181 -11.21146 -11.21134
 Alpha  occ. eigenvalues --   -1.45729  -1.34974  -1.22359  -1.15885  -1.13957
 Alpha  occ. eigenvalues --   -1.09844  -1.08148  -1.05887  -1.05482  -1.03194
 Alpha  occ. eigenvalues --   -1.01578  -0.99657  -0.98007  -0.96267  -0.93164
 Alpha  occ. eigenvalues --   -0.92507  -0.92142  -0.91208  -0.90839  -0.85859
 Alpha  occ. eigenvalues --   -0.84243  -0.83075  -0.82825  -0.79582  -0.78301
 Alpha  occ. eigenvalues --   -0.77051  -0.75702  -0.73617  -0.72004  -0.70755
 Alpha  occ. eigenvalues --   -0.67863  -0.66615  -0.66163  -0.65174  -0.64729
 Alpha  occ. eigenvalues --   -0.63813  -0.63542  -0.62556  -0.62299  -0.61545
 Alpha  occ. eigenvalues --   -0.60864  -0.60532  -0.59699  -0.59095  -0.58090
 Alpha  occ. eigenvalues --   -0.57766  -0.57457  -0.56668  -0.56289  -0.55807
 Alpha  occ. eigenvalues --   -0.55643  -0.55005  -0.54174  -0.54070  -0.53874
 Alpha  occ. eigenvalues --   -0.53717  -0.53430  -0.53057  -0.52738  -0.52224
 Alpha  occ. eigenvalues --   -0.50884  -0.50784  -0.50022  -0.49888  -0.49397
 Alpha  occ. eigenvalues --   -0.48504  -0.48198  -0.48013  -0.47421  -0.47272
 Alpha  occ. eigenvalues --   -0.46536  -0.46150  -0.45425  -0.45156  -0.44979
 Alpha  occ. eigenvalues --   -0.44882  -0.44519  -0.44137  -0.43823  -0.43421
 Alpha  occ. eigenvalues --   -0.42476  -0.42247  -0.41962  -0.40717  -0.39063
 Alpha  occ. eigenvalues --   -0.33832
 Alpha virt. eigenvalues --    0.17010   0.20276   0.20861   0.21532   0.21959
 Alpha virt. eigenvalues --    0.22591   0.22969   0.23701   0.24415   0.25021
 Alpha virt. eigenvalues --    0.25337   0.25802   0.26130   0.26914   0.27002

 Mulliken atomic charges:
              1
     1  C    0.193731
     2  H    0.172292
     3  C   -0.366692
     4  H    0.195121
     5  H    0.154582
     6  C    0.069001
     7  C   -0.040950
     8  C   -0.326253
     9  H    0.164433
    10  H    0.171792
    11  C   -0.339500
    12  H    0.144614
    13  H    0.182367
    14  C   -0.249997
    15  H    0.212676
    16  C    0.189893
    17  H    0.166279
    18  C   -0.189185
    19  H    0.191597
    20  C   -0.164925
    21  H    0.158616
    22  C   -0.328850
    23  H    0.165671
    24  H    0.168877
    25  C   -0.298173
    26  H    0.152367
    27  H    0.165752
    28  C   -0.029583
    29  C   -0.163785
    30  H    0.150979
    31  C   -0.302463
    32  H    0.150862
    33  H    0.175651
    34  C   -0.338512
    35  H    0.162011
    36  H    0.165489
    37  C   -0.141292
    38  H    0.156880
    39  C   -0.489144
    40  H    0.164591
    41  H    0.167625
    42  H    0.163150
    43  C   -0.147413
    44  H    0.157907
    45  C   -0.487384
    46  H    0.157774
    47  H    0.158071
    48  H    0.162108
    49  C   -0.478062
    50  H    0.163828
    51  H    0.163479
    52  H    0.174220
    53  O   -0.394818
    54  O   -0.469405
    55  H    0.460460
    56  O   -0.759753
    57  H    0.428144
    58  C   -0.314530
    59  H    0.157940
    60  H    0.160082
    61  C   -0.319139
    62  H    0.158408
    63  H    0.160334
    64  C   -0.297622
    65  H    0.150837
    66  H    0.151035
    67  C   -0.152412
    68  H    0.156579
    69  C   -0.471801
    70  H    0.152339
    71  H    0.158383
    72  H    0.157713
    73  C   -0.476814
    74  H    0.152183
    75  H    0.158648
    76  H    0.161084
 Sum of Mulliken atomic charges =   0.00000

 Dipole moment (field-independent basis, Debye):
    X=             -2.2618    Y=              1.3981    Z=             -0.3420  Tot=              2.6809
 Quadrupole moment (field-independent basis, Debye-Ang):
   XX=           -215.9754   YY=           -187.8738   ZZ=           -188.8387
   XY=              6.2653   XZ=             -9.4335   YZ=             -7.4379

 Normal termination of Gaussian 09 at Fri Apr 28 13:44:53 2017.
