 Gaussian 09, Revision C.01,
 Gaussian 09:  EM64L-G09RevC.01 23-Sep-2011

 ----------------------------------------------------------------------
 #P HF/6-31G* SCF(Conver=6) NoSymm Test Pop=chelpg IOp(6/33=2) GFInput
 GFPrint
 ----------------------------------------------------------------------

 (Enter /scratch/michal/g09/l101.exe)
 ----------------------------------------------
 MEP - Input generated by R.E.D.-III.x MOLECULE
 ----------------------------------------------
 Charge =  0 Multiplicity = 1

                          Input orientation:
 ---------------------------------------------------------------------
 Center     Atomic      Atomic             Coordinates (Angstroms)
 Number     Number       Type             X           Y           Z
 ---------------------------------------------------------------------
      1          6           0        1.758600   -1.248328   -0.069936
      2          1           0        1.871039   -1.127989   -1.154380
      3          6           0        3.151224   -1.308844    0.573614
      4          1           0        3.727925   -2.128345    0.133208
      5          1           0        3.013978   -1.555387    1.639086
      6          6           0        3.914515   -0.003735    0.452581
      7          6           0        3.190811    1.278966    0.877103
      8          6           0        1.748669    1.254292    0.281071
      9          1           0        1.819062    1.444207   -0.799005
     10          1           0        1.166942    2.080153    0.703364
     11          6           0        0.979031   -0.059045    0.488928
     12          1           0        0.787023   -0.227588    1.559066
     13          1           0        0.000000    0.000000    0.000000
     14          6           0        5.175601    0.000000    0.000000
     15          1           0        5.636161   -0.936751   -0.315736
     16          6           0        6.060457    1.206958   -0.107486
     17          1           0        6.293861    1.395748   -1.168035
     18          6           0        5.482532    2.478988    0.531347
     19          1           0        5.691419    2.415052    1.604749
     20          6           0        3.946141    2.528592    0.303438
     21          1           0        3.800295    2.483842   -0.788734
     22          6           0        3.349542    3.874101    0.775064
     23          1           0        3.364572    3.922173    1.869307
     24          1           0        2.294786    3.930821    0.484488
     25          6           0        4.073498    5.114318    0.215977
     26          1           0        3.935955    5.156398   -0.874303
     27          1           0        3.591723    6.008299    0.623799
     28          6           0        5.584507    5.086605    0.521801
     29          6           0        6.130643    3.746821   -0.052924
     30          1           0        5.851282    3.759634   -1.121432
     31          6           0        7.657879    3.910532    0.000000
     32          1           0        8.174133    3.257523   -0.708292
     33          1           0        8.040666    3.647481    0.991357
     34          6           0        7.875004    5.415404   -0.312401
     35          1           0        8.547512    5.872588    0.423448
     36          1           0        8.349770    5.552184   -1.288794
     37          6           0        6.470857    6.108773   -0.272587
     38          1           0        6.069811    6.124279   -1.298818
     39          6           0        5.839537    5.221739    2.040797
     40          1           0        5.404493    4.397606    2.611769
     41          1           0        6.907716    5.244843    2.275145
     42          1           0        5.400829    6.148415    2.425246
     43          6           0        6.549665    7.585429    0.195793
     44          1           0        7.012149    7.596171    1.194698
     45          6           0        5.174368    8.267649    0.302731
     46          1           0        4.635110    8.215009   -0.651682
     47          1           0        5.276391    9.324181    0.567769
     48          1           0        4.543844    7.808569    1.067205
     49          6           0        3.115445    1.310682    2.426939
     50          1           0        2.482392    2.131663    2.777470
     51          1           0        2.691702    0.384994    2.825898
     52          1           0        4.109416    1.427329    2.868318
     53          8           0        7.393815    0.896660    0.371484
     54          8           0        7.337993    0.636009    1.805054
     55          1           0        7.380761   -0.334204    1.818767
     56          8           0        1.054331   -2.484607    0.073300
     57          1           0        0.891780   -2.641738    1.014090
     58          6           0        7.478680    8.394071   -0.744284
     59          1           0        8.415505    7.843131   -0.887777
     60          1           0        7.004514    8.450930   -1.734958
     61          6           0        7.839190    9.805981   -0.251364
     62          1           0        6.951371   10.448536   -0.237371
     63          1           0        8.175368    9.736617    0.793001
     64          6           0        8.954301   10.490293   -1.063674
     65          1           0        9.860993    9.871079   -1.003051
     66          1           0        9.206567   11.445392   -0.579300
     67          6           0        8.655437   10.770127   -2.552080
     68          1           0        8.420365    9.813986   -3.041287
     69          6           0        7.451399   11.706086   -2.743110
     70          1           0        7.626344   12.671149   -2.249747
     71          1           0        7.275059   11.904559   -3.806461
     72          1           0        6.529668   11.283360   -2.330346
     73          6           0        9.901141   11.346812   -3.243767
     74          1           0       10.184522   12.309781   -2.799563
     75          1           0        9.722247   11.514000   -4.312100
     76          1           0       10.759404   10.671675   -3.148917
 ---------------------------------------------------------------------

 SCF Done:  E(RHF) =  -1273.68359403     A.U. after    9 cycles

 Alpha  occ. eigenvalues --  -20.62444 -20.62309 -20.56054 -11.28774 -11.28190
 Alpha  occ. eigenvalues --  -11.24922 -11.24426 -11.23226 -11.23160 -11.22955
 Alpha  occ. eigenvalues --  -11.22674 -11.22664 -11.22661 -11.22334 -11.22283
 Alpha  occ. eigenvalues --  -11.22219 -11.22044 -11.21929 -11.21860 -11.21648
 Alpha  occ. eigenvalues --  -11.21520 -11.21420 -11.21363 -11.21178 -11.20933
 Alpha  occ. eigenvalues --  -11.20915 -11.20906 -11.20773 -11.20772 -11.20380
 Alpha  occ. eigenvalues --   -1.45704  -1.35431  -1.22131  -1.15865  -1.13880
 Alpha  occ. eigenvalues --   -1.09615  -1.08064  -1.05904  -1.05681  -1.03063
 Alpha  occ. eigenvalues --   -1.01666  -0.99438  -0.97886  -0.96303  -0.92819
 Alpha  occ. eigenvalues --   -0.92290  -0.92154  -0.90883  -0.90465  -0.86042
 Alpha  occ. eigenvalues --   -0.84028  -0.82925  -0.82461  -0.79115  -0.78486
 Alpha  occ. eigenvalues --   -0.76957  -0.75045  -0.74028  -0.72110  -0.69387
 Alpha  occ. eigenvalues --   -0.69356  -0.67141  -0.65636  -0.65309  -0.64670
 Alpha  occ. eigenvalues --   -0.63953  -0.63505  -0.62817  -0.61613  -0.61438
 Alpha  occ. eigenvalues --   -0.61117  -0.60077  -0.59743  -0.58818  -0.58010
 Alpha  occ. eigenvalues --   -0.57868  -0.57080  -0.56380  -0.56129  -0.55726
 Alpha  occ. eigenvalues --   -0.55429  -0.54724  -0.54201  -0.54015  -0.53850
 Alpha  occ. eigenvalues --   -0.53153  -0.52993  -0.52912  -0.52516  -0.52086
 Alpha  occ. eigenvalues --   -0.51432  -0.50187  -0.50095  -0.49726  -0.48815
 Alpha  occ. eigenvalues --   -0.48381  -0.47872  -0.47423  -0.47301  -0.46970
 Alpha  occ. eigenvalues --   -0.46697  -0.46076  -0.45975  -0.45443  -0.45073
 Alpha  occ. eigenvalues --   -0.44658  -0.44316  -0.43406  -0.43302  -0.43176
 Alpha  occ. eigenvalues --   -0.42670  -0.42490  -0.41602  -0.40447  -0.38613
 Alpha  occ. eigenvalues --   -0.34433
 Alpha virt. eigenvalues --    0.16129   0.20791   0.21290   0.21633   0.22194
 Alpha virt. eigenvalues --    0.22930   0.23020   0.24445   0.24925   0.25365
 Alpha virt. eigenvalues --    0.25709   0.26186   0.26565   0.26946   0.27310

 Mulliken atomic charges:
              1
     1  C    0.193938
     2  H    0.173819
     3  C   -0.368320
     4  H    0.191945
     5  H    0.155435
     6  C    0.083582
     7  C   -0.042183
     8  C   -0.327345
     9  H    0.165846
    10  H    0.174456
    11  C   -0.341369
    12  H    0.145004
    13  H    0.184016
    14  C   -0.279784
    15  H    0.185818
    16  C    0.190478
    17  H    0.186688
    18  C   -0.182513
    19  H    0.208768
    20  C   -0.168214
    21  H    0.156548
    22  C   -0.327839
    23  H    0.165083
    24  H    0.166884
    25  C   -0.297729
    26  H    0.151510
    27  H    0.164980
    28  C   -0.030755
    29  C   -0.168882
    30  H    0.147037
    31  C   -0.306150
    32  H    0.173350
    33  H    0.177676
    34  C   -0.339207
    35  H    0.159868
    36  H    0.165276
    37  C   -0.134950
    38  H    0.150519
    39  C   -0.488113
    40  H    0.163154
    41  H    0.170042
    42  H    0.161160
    43  C   -0.148832
    44  H    0.153226
    45  C   -0.485733
    46  H    0.151684
    47  H    0.164329
    48  H    0.161569
    49  C   -0.480800
    50  H    0.165839
    51  H    0.159946
    52  H    0.180380
    53  O   -0.393168
    54  O   -0.470519
    55  H    0.458902
    56  O   -0.759092
    57  H    0.428507
    58  C   -0.311856
    59  H    0.166324
    60  H    0.150432
    61  C   -0.312949
    62  H    0.158198
    63  H    0.154596
    64  C   -0.298459
    65  H    0.151944
    66  H    0.150453
    67  C   -0.151786
    68  H    0.157129
    69  C   -0.476701
    70  H    0.151799
    71  H    0.157945
    72  H    0.161352
    73  C   -0.471882
    74  H    0.152068
    75  H    0.157688
    76  H    0.157937
 Sum of Mulliken atomic charges =   0.00000

 Dipole moment (field-independent basis, Debye):
    X=             -1.4230    Y=             -0.0072    Z=              1.0685  Tot=              1.7795
 Quadrupole moment (field-independent basis, Debye-Ang):
   XX=           -213.5397   YY=           -196.0411   ZZ=           -188.2919
   XY=            -10.8801   XZ=             -2.0700   YZ=             -5.7923

 Normal termination of Gaussian 09 at Fri Apr 28 12:25:32 2017.
