 Gaussian 09, Revision C.01,
 Gaussian 09:  EM64L-G09RevC.01 23-Sep-2011

 ----------------------------------------------------------------------
 #P HF/6-31G* SCF(Conver=6) NoSymm Test Pop=chelpg IOp(6/33=2) GFInput
 GFPrint
 ----------------------------------------------------------------------

 (Enter /scratch/michal/g09/l101.exe)
 ----------------------------------------------
 MEP - Input generated by R.E.D.-III.x MOLECULE
 ----------------------------------------------
 Charge =  0 Multiplicity = 1

                          Input orientation:
 ---------------------------------------------------------------------
 Center     Atomic      Atomic             Coordinates (Angstroms)
 Number     Number       Type             X           Y           Z
 ---------------------------------------------------------------------
      1          6           0        1.758531   -1.248542   -0.068695
      2          1           0        1.871436   -1.128452   -1.153122
      3          6           0        3.150854   -1.308744    0.575580
      4          1           0        3.727673   -2.128631    0.136043
      5          1           0        3.012992   -1.554422    1.641151
      6          6           0        3.914162   -0.003707    0.453745
      7          6           0        3.190574    1.278824    0.878668
      8          6           0        1.748566    1.254171    0.282204
      9          1           0        1.819468    1.443896   -0.797865
     10          1           0        1.166757    2.080181    0.704193
     11          6           0        0.978706   -0.059151    0.489571
     12          1           0        0.785950   -0.227702    1.559569
     13          1           0        0.000000    0.000000    0.000000
     14          6           0        5.174806    0.000000    0.000000
     15          1           0        5.635113   -0.936773   -0.316025
     16          6           0        6.059249    1.207074   -0.109188
     17          1           0        6.289815    1.396443   -1.170256
     18          6           0        5.482569    2.478698    0.531559
     19          1           0        5.692917    2.413808    1.604646
     20          6           0        3.945821    2.528845    0.305556
     21          1           0        3.798775    2.485388   -0.786484
     22          6           0        3.350126    3.874002    0.779286
     23          1           0        3.367525    3.921504    1.873545
     24          1           0        2.294756    3.930707    0.490971
     25          6           0        4.073084    5.114343    0.219351
     26          1           0        3.933887    5.156659   -0.870707
     27          1           0        3.592257    6.008328    0.628222
     28          6           0        5.584466    5.086358    0.522933
     29          6           0        6.130246    3.746874   -0.052582
     30          1           0        5.850432    3.760043   -1.120961
     31          6           0        7.657478    3.911112    0.000000
     32          1           0        8.173869    3.258004   -0.708075
     33          1           0        8.040336    3.648465    0.991453
     34          6           0        7.874051    5.415970   -0.313228
     35          1           0        8.547553    5.873968    0.421252
     36          1           0        8.347348    5.551674   -1.290440
     37          6           0        6.469588    6.108934   -0.272243
     38          1           0        6.067851    6.124407   -1.298204
     39          6           0        5.841567    5.221050    2.041669
     40          1           0        5.409194    4.395501    2.612618
     41          1           0        6.910047    5.246454    2.274298
     42          1           0        5.401332    6.146353    2.427625
     43          6           0        6.546629    7.585564    0.196935
     44          1           0        7.011777    7.595976    1.194536
     45          6           0        5.168986    8.263025    0.307344
     46          1           0        4.621250    8.193102   -0.640958
     47          1           0        5.267764    9.324260    0.554335
     48          1           0        4.547886    7.813150    1.085057
     49          6           0        3.114983    1.310186    2.428448
     50          1           0        2.481650    2.130957    2.778933
     51          1           0        2.691577    0.384298    2.827354
     52          1           0        4.108934    1.427207    2.869750
     53          8           0        7.393909    0.896761    0.365948
     54          8           0        7.342036    0.634802    1.799445
     55          1           0        7.386763   -0.335329    1.812186
     56          8           0        1.054217   -2.484791    0.074559
     57          1           0        0.890914   -2.641477    1.015292
     58          6           0        7.469617    8.398389   -0.745480
     59          1           0        8.387579    7.830577   -0.933827
     60          1           0        6.971642    8.502790   -1.721920
     61          6           0        7.877980    9.788903   -0.232473
     62          1           0        6.989928   10.413124   -0.084469
     63          1           0        8.349047    9.682090    0.756222
     64          6           0        8.854644   10.503188   -1.179080
     65          1           0        8.372628   10.647221   -2.158392
     66          1           0        9.713999    9.841524   -1.359294
     67          6           0        9.385040   11.863652   -0.682288
     68          1           0        9.825805   11.704259    0.314086
     69          6           0       10.498086   12.378588   -1.608816
     70          1           0       10.113284   12.553048   -2.621892
     71          1           0       10.913405   13.325204   -1.244580
     72          1           0       11.320504   11.658089   -1.684986
     73          6           0        8.273590   12.916688   -0.542638
     74          1           0        7.781713   13.092350   -1.508363
     75          1           0        8.682661   13.874224   -0.200545
     76          1           0        7.504023   12.613108    0.174042
 ---------------------------------------------------------------------

 SCF Done:  E(RHF) =  -1273.68494835     A.U. after    9 cycles

 Alpha  occ. eigenvalues --  -20.62438 -20.62303 -20.56049 -11.28766 -11.28184
 Alpha  occ. eigenvalues --  -11.24914 -11.24416 -11.23219 -11.23152 -11.22950
 Alpha  occ. eigenvalues --  -11.22669 -11.22658 -11.22647 -11.22375 -11.22329
 Alpha  occ. eigenvalues --  -11.22205 -11.22038 -11.21919 -11.21852 -11.21638
 Alpha  occ. eigenvalues --  -11.21504 -11.21384 -11.21327 -11.21193 -11.20936
 Alpha  occ. eigenvalues --  -11.20933 -11.20895 -11.20764 -11.20760 -11.20370
 Alpha  occ. eigenvalues --   -1.45698  -1.35426  -1.22127  -1.15856  -1.13870
 Alpha  occ. eigenvalues --   -1.09566  -1.08094  -1.05925  -1.05733  -1.03052
 Alpha  occ. eigenvalues --   -1.01714  -0.99544  -0.97877  -0.96295  -0.92801
 Alpha  occ. eigenvalues --   -0.92278  -0.92142  -0.90795  -0.90446  -0.86034
 Alpha  occ. eigenvalues --   -0.83985  -0.82913  -0.82243  -0.78697  -0.78253
 Alpha  occ. eigenvalues --   -0.76869  -0.75875  -0.74348  -0.72072  -0.69384
 Alpha  occ. eigenvalues --   -0.69347  -0.67134  -0.65626  -0.65281  -0.64750
 Alpha  occ. eigenvalues --   -0.63944  -0.63739  -0.62815  -0.61764  -0.61099
 Alpha  occ. eigenvalues --   -0.60703  -0.59983  -0.59673  -0.59016  -0.58601
 Alpha  occ. eigenvalues --   -0.57867  -0.57139  -0.56654  -0.56034  -0.55641
 Alpha  occ. eigenvalues --   -0.55249  -0.54949  -0.54045  -0.53966  -0.53278
 Alpha  occ. eigenvalues --   -0.53159  -0.52916  -0.52736  -0.52276  -0.51866
 Alpha  occ. eigenvalues --   -0.51408  -0.50847  -0.50027  -0.49783  -0.48493
 Alpha  occ. eigenvalues --   -0.48217  -0.47940  -0.47572  -0.47232  -0.46914
 Alpha  occ. eigenvalues --   -0.46481  -0.45994  -0.45728  -0.45515  -0.45051
 Alpha  occ. eigenvalues --   -0.44754  -0.44690  -0.44148  -0.43305  -0.43207
 Alpha  occ. eigenvalues --   -0.42655  -0.42328  -0.41552  -0.40427  -0.38556
 Alpha  occ. eigenvalues --   -0.34424
 Alpha virt. eigenvalues --    0.16140   0.20814   0.21349   0.21746   0.22414
 Alpha virt. eigenvalues --    0.22933   0.22973   0.24521   0.24992   0.25418
 Alpha virt. eigenvalues --    0.25779   0.26049   0.26351   0.26725   0.27319

 Mulliken atomic charges:
              1
     1  C    0.193929
     2  H    0.173820
     3  C   -0.368298
     4  H    0.191914
     5  H    0.155422
     6  C    0.083534
     7  C   -0.042171
     8  C   -0.327313
     9  H    0.165844
    10  H    0.174421
    11  C   -0.341346
    12  H    0.144967
    13  H    0.183995
    14  C   -0.279670
    15  H    0.185777
    16  C    0.190652
    17  H    0.186696
    18  C   -0.182592
    19  H    0.208621
    20  C   -0.168228
    21  H    0.156559
    22  C   -0.327845
    23  H    0.165073
    24  H    0.166839
    25  C   -0.297686
    26  H    0.151503
    27  H    0.165085
    28  C   -0.030705
    29  C   -0.168813
    30  H    0.147106
    31  C   -0.306158
    32  H    0.173508
    33  H    0.177536
    34  C   -0.339418
    35  H    0.159701
    36  H    0.165594
    37  C   -0.135291
    38  H    0.150844
    39  C   -0.488157
    40  H    0.163146
    41  H    0.170011
    42  H    0.161108
    43  C   -0.148808
    44  H    0.153398
    45  C   -0.485163
    46  H    0.152468
    47  H    0.163074
    48  H    0.161281
    49  C   -0.480756
    50  H    0.165853
    51  H    0.159942
    52  H    0.180290
    53  O   -0.393233
    54  O   -0.470513
    55  H    0.458897
    56  O   -0.759092
    57  H    0.428502
    58  C   -0.308504
    59  H    0.167205
    60  H    0.147367
    61  C   -0.309612
    62  H    0.158646
    63  H    0.149339
    64  C   -0.295500
    65  H    0.147609
    66  H    0.152356
    67  C   -0.147288
    68  H    0.151503
    69  C   -0.472476
    70  H    0.152476
    71  H    0.157889
    72  H    0.158102
    73  C   -0.476304
    74  H    0.151608
    75  H    0.158192
    76  H    0.161740
 Sum of Mulliken atomic charges =   0.00000

 Dipole moment (field-independent basis, Debye):
    X=             -1.3853    Y=              0.0381    Z=              1.1189  Tot=              1.7812
 Quadrupole moment (field-independent basis, Debye-Ang):
   XX=           -212.6402   YY=           -195.4891   ZZ=           -188.3594
   XY=            -10.1975   XZ=             -1.4406   YZ=             -5.5735

 Normal termination of Gaussian 09 at Fri Apr 28 12:20:17 2017.
