 Gaussian 09, Revision C.01,
 Gaussian 09:  EM64L-G09RevC.01 23-Sep-2011

 ----------------------------------------------------------------------
 #P HF/6-31G* SCF(Conver=6) NoSymm Test Pop=chelpg IOp(6/33=2) GFInput
 GFPrint
 ----------------------------------------------------------------------

 (Enter /scratch/michal/g09/l101.exe)
 ----------------------------------------------
 MEP - Input generated by R.E.D.-III.x MOLECULE
 ----------------------------------------------
 Charge =  0 Multiplicity = 1

                          Input orientation:
 ---------------------------------------------------------------------
 Center     Atomic      Atomic             Coordinates (Angstroms)
 Number     Number       Type             X           Y           Z
 ---------------------------------------------------------------------
      1          6           0        1.759247   -1.248561   -0.062597
      2          1           0        1.873112   -1.129862   -1.147113
      3          6           0        3.150636   -1.308014    0.582776
      4          1           0        3.729320   -2.126532    0.144015
      5          1           0        3.013580   -1.554213    1.648460
      6          6           0        3.912540   -0.001897    0.457486
      7          6           0        3.186741    1.276225    0.889379
      8          6           0        1.746883    1.255441    0.287837
      9          1           0        1.822394    1.445290   -0.791949
     10          1           0        1.162620    2.080830    0.708177
     11          6           0        0.977262   -0.058518    0.492581
     12          1           0        0.780883   -0.226646    1.561849
     13          1           0        0.000000    0.000000    0.000000
     14          6           0        5.171493    0.000000    0.000000
     15          1           0        5.637126   -0.935284   -0.302547
     16          6           0        6.056950    1.206626   -0.103847
     17          1           0        6.307922    1.402593   -1.157921
     18          6           0        5.482208    2.475423    0.547309
     19          1           0        5.698216    2.404320    1.621209
     20          6           0        3.942693    2.530123    0.330428
     21          1           0        3.794041    2.501478   -0.761408
     22          6           0        3.351766    3.871533    0.824756
     23          1           0        3.385107    3.910749    1.918764
     24          1           0        2.292311    3.925721    0.552227
     25          6           0        4.064076    5.115624    0.260295
     26          1           0        3.905152    5.161088   -0.826228
     27          1           0        3.596834    6.012507    0.683674
     28          6           0        5.577238    5.086408    0.544669
     29          6           0        6.124021    3.747769   -0.036329
     30          1           0        5.834066    3.756718   -1.100592
     31          6           0        7.654647    3.920509    0.000000
     32          1           0        8.157680    3.290859   -0.740476
     33          1           0        8.054002    3.631132    0.977188
     34          6           0        7.866949    5.436312   -0.273947
     35          1           0        8.504112    5.881841    0.496725
     36          1           0        8.373597    5.613472   -1.229158
     37          6           0        6.450084    6.091183   -0.285226
     38          1           0        6.077845    5.984828   -1.313759
     39          6           0        5.835147    5.198202    2.065397
     40          1           0        5.479919    4.318176    2.607493
     41          1           0        6.896884    5.310907    2.298416
     42          1           0        5.312272    6.063191    2.483077
     43          6           0        6.491875    7.626593   -0.036915
     44          1           0        7.246864    7.981647   -0.754988
     45          6           0        6.986127    8.095536    1.346612
     46          1           0        6.216064    7.991705    2.116657
     47          1           0        7.253687    9.157251    1.299485
     48          1           0        7.873066    7.552505    1.685694
     49          6           0        3.103612    1.298634    2.439181
     50          1           0        2.462833    2.112464    2.792747
     51          1           0        2.686527    0.367187    2.830785
     52          1           0        4.094293    1.419412    2.887367
     53          8           0        7.304711    0.961501    0.593147
     54          8           0        8.034182   -0.064048   -0.146029
     55          1           0        8.798178    0.453124   -0.449968
     56          8           0        1.052006   -2.483514    0.081271
     57          1           0        0.921030   -2.657024    1.024100
     58          6           0        5.177273    8.371878   -0.375031
     59          1           0        4.390751    8.044646    0.316818
     60          1           0        5.338529    9.437149   -0.154964
     61          6           0        4.649603    8.263373   -1.818093
     62          1           0        4.406114    7.221151   -2.052472
     63          1           0        3.697132    8.810230   -1.867609
     64          6           0        5.596484    8.836186   -2.884721
     65          1           0        6.507340    8.223669   -2.950391
     66          1           0        5.924889    9.834273   -2.559492
     67          6           0        4.989733    8.960621   -4.297491
     68          1           0        4.067096    9.555328   -4.210695
     69          6           0        5.947457    9.716433   -5.232082
     70          1           0        6.889283    9.166214   -5.354704
     71          1           0        5.509501    9.849410   -6.227893
     72          1           0        6.191305   10.709353   -4.837155
     73          6           0        4.615255    7.596796   -4.900180
     74          1           0        5.500304    6.952170   -4.981880
     75          1           0        4.198144    7.714914   -5.906728
     76          1           0        3.871213    7.068636   -4.295524
 ---------------------------------------------------------------------

 SCF Done:  E(RHF) =  -1273.67704436     A.U. after    9 cycles

 Alpha  occ. eigenvalues --  -20.62433 -20.62311 -20.55612 -11.28600 -11.27715
 Alpha  occ. eigenvalues --  -11.24671 -11.23641 -11.23391 -11.23134 -11.23079
 Alpha  occ. eigenvalues --  -11.22720 -11.22709 -11.22682 -11.22506 -11.22317
 Alpha  occ. eigenvalues --  -11.22311 -11.22267 -11.22123 -11.21910 -11.21882
 Alpha  occ. eigenvalues --  -11.21863 -11.21777 -11.21713 -11.21677 -11.21554
 Alpha  occ. eigenvalues --  -11.21487 -11.21283 -11.21233 -11.21085 -11.21045
 Alpha  occ. eigenvalues --   -1.45726  -1.34976  -1.22358  -1.15866  -1.13917
 Alpha  occ. eigenvalues --   -1.09830  -1.08151  -1.05962  -1.05492  -1.03182
 Alpha  occ. eigenvalues --   -1.01654  -0.99801  -0.97973  -0.96308  -0.92784
 Alpha  occ. eigenvalues --   -0.92616  -0.92514  -0.91507  -0.90693  -0.85862
 Alpha  occ. eigenvalues --   -0.84075  -0.82930  -0.82768  -0.79136  -0.78392
 Alpha  occ. eigenvalues --   -0.77015  -0.76171  -0.74389  -0.71981  -0.70541
 Alpha  occ. eigenvalues --   -0.67899  -0.66614  -0.65617  -0.65188  -0.64864
 Alpha  occ. eigenvalues --   -0.64122  -0.63502  -0.62662  -0.61741  -0.61332
 Alpha  occ. eigenvalues --   -0.60688  -0.60062  -0.60010  -0.59354  -0.58937
 Alpha  occ. eigenvalues --   -0.57794  -0.57241  -0.57151  -0.56048  -0.55778
 Alpha  occ. eigenvalues --   -0.55745  -0.55249  -0.54574  -0.53967  -0.53903
 Alpha  occ. eigenvalues --   -0.53421  -0.53312  -0.52821  -0.52358  -0.51882
 Alpha  occ. eigenvalues --   -0.51459  -0.50573  -0.50298  -0.49473  -0.49119
 Alpha  occ. eigenvalues --   -0.48634  -0.48343  -0.48174  -0.47671  -0.47021
 Alpha  occ. eigenvalues --   -0.46923  -0.46210  -0.45487  -0.45376  -0.45192
 Alpha  occ. eigenvalues --   -0.44970  -0.44700  -0.43893  -0.43712  -0.42993
 Alpha  occ. eigenvalues --   -0.42534  -0.42286  -0.41964  -0.40666  -0.38967
 Alpha  occ. eigenvalues --   -0.33834
 Alpha virt. eigenvalues --    0.17008   0.19854   0.20808   0.21369   0.22143
 Alpha virt. eigenvalues --    0.22467   0.23095   0.23548   0.24427   0.24870
 Alpha virt. eigenvalues --    0.24915   0.25599   0.26130   0.26601   0.27176

 Mulliken atomic charges:
              1
     1  C    0.193714
     2  H    0.172334
     3  C   -0.366714
     4  H    0.195164
     5  H    0.154594
     6  C    0.069088
     7  C   -0.041061
     8  C   -0.326256
     9  H    0.164403
    10  H    0.171725
    11  C   -0.339489
    12  H    0.144674
    13  H    0.182377
    14  C   -0.250276
    15  H    0.212840
    16  C    0.191172
    17  H    0.166185
    18  C   -0.190433
    19  H    0.191853
    20  C   -0.164863
    21  H    0.158422
    22  C   -0.328662
    23  H    0.167176
    24  H    0.168837
    25  C   -0.302108
    26  H    0.153691
    27  H    0.163894
    28  C   -0.024114
    29  C   -0.166521
    30  H    0.150984
    31  C   -0.301696
    32  H    0.150880
    33  H    0.175717
    34  C   -0.331482
    35  H    0.162245
    36  H    0.161965
    37  C   -0.154141
    38  H    0.158715
    39  C   -0.485928
    40  H    0.163582
    41  H    0.168532
    42  H    0.162053
    43  C   -0.147767
    44  H    0.159034
    45  C   -0.481879
    46  H    0.156579
    47  H    0.158922
    48  H    0.160893
    49  C   -0.477964
    50  H    0.163930
    51  H    0.163480
    52  H    0.174099
    53  O   -0.394929
    54  O   -0.469410
    55  H    0.460511
    56  O   -0.759720
    57  H    0.428146
    58  C   -0.304163
    59  H    0.155677
    60  H    0.153127
    61  C   -0.316894
    62  H    0.160986
    63  H    0.155022
    64  C   -0.300125
    65  H    0.150484
    66  H    0.152071
    67  C   -0.146919
    68  H    0.151864
    69  C   -0.472341
    70  H    0.152271
    71  H    0.158726
    72  H    0.158316
    73  C   -0.476826
    74  H    0.150549
    75  H    0.159642
    76  H    0.161532
 Sum of Mulliken atomic charges =   0.00000

 Dipole moment (field-independent basis, Debye):
    X=             -0.0934    Y=              2.7753    Z=              0.1676  Tot=              2.7819
 Quadrupole moment (field-independent basis, Debye-Ang):
   XX=           -190.7303   YY=           -190.5237   ZZ=           -189.3240
   XY=              9.8692   XZ=            -10.1798   YZ=             -4.7752

 Normal termination of Gaussian 09 at Fri Apr 28 13:10:20 2017.
