 Gaussian 09, Revision C.01,
 Gaussian 09:  EM64L-G09RevC.01 23-Sep-2011

 ----------------------------------------------------------------------
 #P HF/6-31G* SCF(Conver=6) NoSymm Test Pop=chelpg IOp(6/33=2) GFInput
 GFPrint
 ----------------------------------------------------------------------

 (Enter /scratch/michal/g09/l101.exe)
 ----------------------------------------------
 MEP - Input generated by R.E.D.-III.x MOLECULE
 ----------------------------------------------
 Charge =  0 Multiplicity = 1

                          Input orientation:
 ---------------------------------------------------------------------
 Center     Atomic      Atomic             Coordinates (Angstroms)
 Number     Number       Type             X           Y           Z
 ---------------------------------------------------------------------
      1          6           0       -1.004627    1.978148    1.691756
      2          1           0       -0.990615    0.997930    2.183823
      3          6           0        0.325161    2.694763    1.966425
      4          1           0        0.480837    2.786447    3.046003
      5          1           0        0.237437    3.719885    1.571147
      6          6           0        1.511536    2.005094    1.320271
      7          6           0        1.398502    1.653486   -0.167182
      8          6           0       -0.003324    1.015631   -0.419587
      9          1           0        0.000000    0.000000    0.000000
     10          1           0       -0.163387    0.905015   -1.497091
     11          6           0       -1.188332    1.782132    0.187658
     12          1           0       -1.296216    2.766669   -0.291362
     13          1           0       -2.120988    1.238090    0.000000
     14          6           0        2.608452    1.734778    2.040564
     15          1           0        2.627924    1.980297    3.102935
     16          6           0        3.869386    1.117298    1.511473
     17          1           0        4.021054    0.133405    1.984595
     18          6           0        3.913398    0.970510   -0.017128
     19          1           0        4.214485    1.944356   -0.418344
     20          6           0        2.500068    0.603781   -0.549406
     21          1           0        2.212741   -0.325638   -0.030091
     22          6           0        2.534376    0.274785   -2.059221
     23          1           0        2.704024    1.191787   -2.633984
     24          1           0        1.556010   -0.103385   -2.375381
     25          6           0        3.605053   -0.761011   -2.453802
     26          1           0        3.358717   -1.731646   -1.999316
     27          1           0        3.561954   -0.906404   -3.537615
     28          6           0        5.013140   -0.341042   -1.986893
     29          6           0        4.922125   -0.108132   -0.450396
     30          1           0        4.537605   -1.058632   -0.039805
     31          6           0        6.387615    0.000000    0.000000
     32          1           0        6.518179   -0.230135    1.060465
     33          1           0        6.760023    1.020158   -0.138230
     34          6           0        7.128329   -1.005692   -0.921601
     35          1           0        8.012379   -0.540745   -1.374436
     36          1           0        7.491629   -1.867953   -0.354219
     37          6           0        6.118280   -1.453779   -2.032109
     38          1           0        5.629321   -2.381239   -1.693028
     39          6           0        5.489254    0.919654   -2.744883
     40          1           0        4.845396    1.783701   -2.562545
     41          1           0        6.504023    1.209849   -2.457762
     42          1           0        5.493726    0.742227   -3.825372
     43          6           0        6.819001   -1.786423   -3.375516
     44          1           0        7.370337   -0.889356   -3.696452
     45          6           0        5.837827   -2.168072   -4.498182
     46          1           0        5.198434   -3.005617   -4.191571
     47          1           0        6.371128   -2.473386   -5.403356
     48          1           0        5.186845   -1.337147   -4.778784
     49          6           0        1.534864    2.960374   -0.993001
     50          1           0        1.316242    2.786555   -2.051109
     51          1           0        0.840463    3.729193   -0.643180
     52          1           0        2.543677    3.375144   -0.911580
     53          8           0        5.028567    1.809799    2.040698
     54          8           0        5.059009    3.166867    1.507984
     55          1           0        4.728536    3.671915    2.268915
     56          8           0       -2.107775    2.657399    2.297218
     57          1           0       -2.199831    3.528001    1.885182
     58          6           0        7.862285   -2.912924   -3.169194
     59          1           0        8.469293   -2.687111   -2.285283
     60          1           0        7.330158   -3.849352   -2.940778
     61          6           0        8.823562   -3.148077   -4.345763
     62          1           0        8.270130   -3.471525   -5.236926
     63          1           0        9.299848   -2.193702   -4.607440
     64          6           0        9.896822   -4.200154   -4.026912
     65          1           0        9.395138   -5.117985   -3.687840
     66          1           0       10.504739   -3.855380   -3.176360
     67          6           0       10.836811   -4.563367   -5.194459
     68          1           0       10.207589   -4.873592   -6.043202
     69          6           0       11.693782   -3.372625   -5.653968
     70          1           0       12.321681   -3.006025   -4.831343
     71          1           0       12.359595   -3.663127   -6.474666
     72          1           0       11.082760   -2.535646   -6.006306
     73          6           0       11.731270   -5.754600   -4.815975
     74          1           0       12.381460   -5.501086   -3.968770
     75          1           0       12.376001   -6.049918   -5.651640
     76          1           0       11.134312   -6.627400   -4.527468
 ---------------------------------------------------------------------

 SCF Done:  E(RHF) =  -1273.68504500     A.U. after    9 cycles

 Alpha  occ. eigenvalues --  -20.62436 -20.62301 -20.56048 -11.28764 -11.28183
 Alpha  occ. eigenvalues --  -11.24912 -11.24413 -11.23218 -11.23151 -11.22948
 Alpha  occ. eigenvalues --  -11.22667 -11.22655 -11.22645 -11.22372 -11.22325
 Alpha  occ. eigenvalues --  -11.22201 -11.22036 -11.21920 -11.21848 -11.21634
 Alpha  occ. eigenvalues --  -11.21505 -11.21388 -11.21330 -11.21194 -11.20936
 Alpha  occ. eigenvalues --  -11.20903 -11.20889 -11.20761 -11.20749 -11.20365
 Alpha  occ. eigenvalues --   -1.45695  -1.35425  -1.22126  -1.15854  -1.13867
 Alpha  occ. eigenvalues --   -1.09569  -1.08092  -1.05923  -1.05729  -1.03050
 Alpha  occ. eigenvalues --   -1.01712  -0.99536  -0.97876  -0.96293  -0.92799
 Alpha  occ. eigenvalues --   -0.92264  -0.92141  -0.90793  -0.90442  -0.86032
 Alpha  occ. eigenvalues --   -0.83981  -0.82910  -0.82240  -0.78696  -0.78251
 Alpha  occ. eigenvalues --   -0.76864  -0.75860  -0.74380  -0.72081  -0.69383
 Alpha  occ. eigenvalues --   -0.69346  -0.67133  -0.65614  -0.65278  -0.64396
 Alpha  occ. eigenvalues --   -0.63994  -0.63603  -0.62819  -0.62310  -0.61307
 Alpha  occ. eigenvalues --   -0.60513  -0.60201  -0.59343  -0.59059  -0.58386
 Alpha  occ. eigenvalues --   -0.57868  -0.57309  -0.56073  -0.55987  -0.55932
 Alpha  occ. eigenvalues --   -0.55417  -0.54979  -0.54257  -0.53989  -0.53278
 Alpha  occ. eigenvalues --   -0.53249  -0.52934  -0.52808  -0.52139  -0.51501
 Alpha  occ. eigenvalues --   -0.51345  -0.50698  -0.50266  -0.49830  -0.48481
 Alpha  occ. eigenvalues --   -0.48286  -0.48066  -0.47513  -0.46997  -0.46802
 Alpha  occ. eigenvalues --   -0.46542  -0.45945  -0.45902  -0.45459  -0.45087
 Alpha  occ. eigenvalues --   -0.44876  -0.44609  -0.44151  -0.43304  -0.43205
 Alpha  occ. eigenvalues --   -0.42652  -0.42285  -0.41570  -0.40424  -0.38552
 Alpha  occ. eigenvalues --   -0.34422
 Alpha virt. eigenvalues --    0.16143   0.20817   0.21358   0.21768   0.22464
 Alpha virt. eigenvalues --    0.22883   0.22968   0.24581   0.24982   0.25430
 Alpha virt. eigenvalues --    0.25819   0.26067   0.26425   0.26629   0.27325

 Mulliken atomic charges:
              1
     1  C    0.193918
     2  H    0.173813
     3  C   -0.368294
     4  H    0.191910
     5  H    0.155419
     6  C    0.083499
     7  C   -0.042146
     8  C   -0.327313
     9  H    0.165828
    10  H    0.174412
    11  C   -0.341330
    12  H    0.144977
    13  H    0.183980
    14  C   -0.279543
    15  H    0.185772
    16  C    0.190603
    17  H    0.186696
    18  C   -0.182623
    19  H    0.208680
    20  C   -0.168220
    21  H    0.156553
    22  C   -0.327844
    23  H    0.165064
    24  H    0.166809
    25  C   -0.297672
    26  H    0.151519
    27  H    0.165029
    28  C   -0.030663
    29  C   -0.168845
    30  H    0.147089
    31  C   -0.306142
    32  H    0.173422
    33  H    0.177606
    34  C   -0.339509
    35  H    0.159745
    36  H    0.165680
    37  C   -0.135137
    38  H    0.150822
    39  C   -0.488145
    40  H    0.163150
    41  H    0.170015
    42  H    0.161103
    43  C   -0.149238
    44  H    0.153180
    45  C   -0.485104
    46  H    0.152161
    47  H    0.163795
    48  H    0.161147
    49  C   -0.480769
    50  H    0.165837
    51  H    0.159943
    52  H    0.180307
    53  O   -0.393243
    54  O   -0.470537
    55  H    0.458913
    56  O   -0.759089
    57  H    0.428501
    58  C   -0.308188
    59  H    0.167533
    60  H    0.147049
    61  C   -0.309742
    62  H    0.153238
    63  H    0.154544
    64  C   -0.295425
    65  H    0.152092
    66  H    0.148126
    67  C   -0.147493
    68  H    0.150782
    69  C   -0.476262
    70  H    0.152006
    71  H    0.157858
    72  H    0.162501
    73  C   -0.472410
    74  H    0.152871
    75  H    0.157863
    76  H    0.157570
 Sum of Mulliken atomic charges =   0.00000

 Dipole moment (field-independent basis, Debye):
    X=             -1.1823    Y=              0.7209    Z=             -1.1765  Tot=              1.8170
 Quadrupole moment (field-independent basis, Debye-Ang):
   XX=           -214.7424   YY=           -182.2268   ZZ=           -193.1501
   XY=             -2.8692   XZ=              3.7578   YZ=              0.4460

 Normal termination of Gaussian 09 at Fri Apr 28 13:57:07 2017.
