 Gaussian 09, Revision C.01,
 Gaussian 09:  EM64L-G09RevC.01 23-Sep-2011

 ----------------------------------------------------------------------
 #P HF/6-31G* SCF(Conver=6) NoSymm Test Pop=chelpg IOp(6/33=2) GFInput
 GFPrint
 ----------------------------------------------------------------------

 (Enter /scratch/michal/g09/l101.exe)
 ----------------------------------------------
 MEP - Input generated by R.E.D.-III.x MOLECULE
 ----------------------------------------------
 Charge =  0 Multiplicity = 1

                          Input orientation:
 ---------------------------------------------------------------------
 Center     Atomic      Atomic             Coordinates (Angstroms)
 Number     Number       Type             X           Y           Z
 ---------------------------------------------------------------------
      1          6           0       -1.004173    1.982046    1.688588
      2          1           0       -0.988164    1.003185    2.183275
      3          6           0        0.324913    2.701271    1.959650
      4          1           0        0.481546    2.796641    3.038765
      5          1           0        0.235462    3.724960    1.561068
      6          6           0        1.511374    2.010802    1.314591
      7          6           0        1.397402    1.654132   -0.171736
      8          6           0       -0.004338    1.014865   -0.421436
      9          1           0        0.000000    0.000000    0.000000
     10          1           0       -0.165491    0.902137   -1.498535
     11          6           0       -1.189329    1.781855    0.185249
     12          1           0       -1.298677    2.765112   -0.296078
     13          1           0       -2.121673    1.236454    0.000000
     14          6           0        2.609192    1.744120    2.034869
     15          1           0        2.629364    1.993334    3.096369
     16          6           0        3.869641    1.124731    1.507038
     17          1           0        4.020809    0.141989    1.982747
     18          6           0        3.912998    0.973600   -0.021107
     19          1           0        4.213375    1.946354   -0.425557
     20          6           0        2.499424    0.603901   -0.551455
     21          1           0        2.213216   -0.323693   -0.028268
     22          6           0        2.531504    0.269034   -2.060347
     23          1           0        2.697335    1.184235   -2.638980
     24          1           0        1.553332   -0.112632   -2.372801
     25          6           0        3.603732   -0.765926   -2.453399
     26          1           0        3.358336   -1.736237   -1.997693
     27          1           0        3.562928   -0.912680   -3.537457
     28          6           0        5.010439   -0.342750   -1.987220
     29          6           0        4.921528   -0.106210   -0.451496
     30          1           0        4.535343   -1.055213   -0.039200
     31          6           0        6.388112    0.000000    0.000000
     32          1           0        6.517864   -0.245748    1.057144
     33          1           0        6.757630    1.023221   -0.121968
     34          6           0        7.135113   -0.987811   -0.937432
     35          1           0        7.995546   -0.497357   -1.407878
     36          1           0        7.535637   -1.843687   -0.384475
     37          6           0        6.114768   -1.455176   -2.026003
     38          1           0        5.624675   -2.370886   -1.663041
     39          6           0        5.483588    0.914237   -2.752179
     40          1           0        4.835331    1.776728   -2.578329
     41          1           0        6.496176    1.211516   -2.464472
     42          1           0        5.490974    0.728049   -3.831464
     43          6           0        6.800711   -1.802811   -3.370769
     44          1           0        7.298313   -0.889783   -3.729033
     45          6           0        5.822386   -2.251411   -4.472848
     46          1           0        5.160982   -3.055471   -4.131151
     47          1           0        6.373141   -2.623514   -5.344972
     48          1           0        5.189068   -1.429798   -4.817043
     49          6           0        1.532236    2.958711   -1.001490
     50          1           0        1.314380    2.781473   -2.059181
     51          1           0        0.836466    3.727486   -0.654295
     52          1           0        2.540352    3.375283   -0.920813
     53          8           0        5.029630    1.817718    2.033706
     54          8           0        5.061899    3.172742    1.495821
     55          1           0        4.731386    3.681042    2.254572
     56          8           0       -2.107580    2.661396    2.293490
     57          1           0       -2.201761    3.530475    1.878724
     58          6           0        7.933710   -2.849738   -3.196592
     59          1           0        8.429700   -2.965828   -4.171017
     60          1           0        8.698726   -2.448580   -2.520242
     61          6           0        7.515144   -4.242118   -2.695104
     62          1           0        7.046145   -4.152762   -1.707615
     63          1           0        6.753285   -4.661257   -3.363432
     64          6           0        8.711756   -5.204113   -2.610492
     65          1           0        9.473251   -4.760353   -1.952770
     66          1           0        9.176158   -5.274347   -3.604874
     67          6           0        8.415589   -6.637583   -2.111227
     68          1           0        9.380751   -7.165482   -2.121755
     69          6           0        7.902085   -6.666872   -0.662030
     70          1           0        6.907859   -6.213420   -0.575792
     71          1           0        7.823201   -7.697369   -0.297122
     72          1           0        8.576512   -6.124950    0.011436
     73          6           0        7.470115   -7.408153   -3.047718
     74          1           0        6.461243   -6.979550   -3.045875
     75          1           0        7.380438   -8.455130   -2.736107
     76          1           0        7.836037   -7.397546   -4.081214
 ---------------------------------------------------------------------

 SCF Done:  E(RHF) =  -1273.68309191     A.U. after    9 cycles

 Alpha  occ. eigenvalues --  -20.62438 -20.62304 -20.56049 -11.28763 -11.28183
 Alpha  occ. eigenvalues --  -11.24919 -11.24415 -11.23231 -11.23150 -11.22952
 Alpha  occ. eigenvalues --  -11.22670 -11.22656 -11.22612 -11.22413 -11.22330
 Alpha  occ. eigenvalues --  -11.22174 -11.22038 -11.21930 -11.21733 -11.21636
 Alpha  occ. eigenvalues --  -11.21516 -11.21373 -11.21244 -11.21184 -11.20942
 Alpha  occ. eigenvalues --  -11.20939 -11.20885 -11.20817 -11.20764 -11.20394
 Alpha  occ. eigenvalues --   -1.45696  -1.35425  -1.22129  -1.15860  -1.13885
 Alpha  occ. eigenvalues --   -1.09522  -1.08011  -1.05897  -1.05652  -1.03049
 Alpha  occ. eigenvalues --   -1.01623  -0.99406  -0.97847  -0.96308  -0.92797
 Alpha  occ. eigenvalues --   -0.92300  -0.92125  -0.90824  -0.90487  -0.86036
 Alpha  occ. eigenvalues --   -0.84433  -0.83062  -0.82894  -0.78965  -0.78458
 Alpha  occ. eigenvalues --   -0.76812  -0.74597  -0.73777  -0.71658  -0.69407
 Alpha  occ. eigenvalues --   -0.69287  -0.67125  -0.65615  -0.65359  -0.64308
 Alpha  occ. eigenvalues --   -0.63899  -0.63386  -0.62818  -0.62062  -0.61907
 Alpha  occ. eigenvalues --   -0.60906  -0.60138  -0.59720  -0.58905  -0.58438
 Alpha  occ. eigenvalues --   -0.57854  -0.57229  -0.56509  -0.56091  -0.55578
 Alpha  occ. eigenvalues --   -0.55336  -0.54673  -0.54340  -0.53984  -0.53502
 Alpha  occ. eigenvalues --   -0.53300  -0.52841  -0.52685  -0.52186  -0.51720
 Alpha  occ. eigenvalues --   -0.51439  -0.51215  -0.50195  -0.50008  -0.48482
 Alpha  occ. eigenvalues --   -0.48345  -0.47926  -0.47431  -0.47298  -0.46903
 Alpha  occ. eigenvalues --   -0.46722  -0.46230  -0.45940  -0.45228  -0.44976
 Alpha  occ. eigenvalues --   -0.44701  -0.44438  -0.43433  -0.43283  -0.42852
 Alpha  occ. eigenvalues --   -0.42670  -0.42248  -0.41561  -0.40421  -0.38674
 Alpha  occ. eigenvalues --   -0.34423
 Alpha virt. eigenvalues --    0.16139   0.20687   0.21103   0.21524   0.22257
 Alpha virt. eigenvalues --    0.22754   0.22970   0.24226   0.24680   0.25195
 Alpha virt. eigenvalues --    0.25668   0.26134   0.26369   0.27043   0.27323

 Mulliken atomic charges:
              1
     1  C    0.193923
     2  H    0.173812
     3  C   -0.368283
     4  H    0.191935
     5  H    0.155413
     6  C    0.083392
     7  C   -0.042123
     8  C   -0.327313
     9  H    0.165831
    10  H    0.174433
    11  C   -0.341364
    12  H    0.144958
    13  H    0.184004
    14  C   -0.279640
    15  H    0.185815
    16  C    0.190673
    17  H    0.186659
    18  C   -0.182450
    19  H    0.208698
    20  C   -0.168247
    21  H    0.156489
    22  C   -0.327914
    23  H    0.165126
    24  H    0.166848
    25  C   -0.297563
    26  H    0.151206
    27  H    0.164891
    28  C   -0.029090
    29  C   -0.168675
    30  H    0.146713
    31  C   -0.306260
    32  H    0.172551
    33  H    0.178577
    34  C   -0.338794
    35  H    0.160718
    36  H    0.164428
    37  C   -0.140954
    38  H    0.154903
    39  C   -0.488786
    40  H    0.163372
    41  H    0.170153
    42  H    0.160695
    43  C   -0.147266
    44  H    0.157621
    45  C   -0.486203
    46  H    0.156221
    47  H    0.157439
    48  H    0.160985
    49  C   -0.480735
    50  H    0.165839
    51  H    0.159960
    52  H    0.180292
    53  O   -0.393208
    54  O   -0.470591
    55  H    0.458931
    56  O   -0.759091
    57  H    0.428504
    58  C   -0.309271
    59  H    0.152054
    60  H    0.162089
    61  C   -0.321393
    62  H    0.159320
    63  H    0.159955
    64  C   -0.300145
    65  H    0.151661
    66  H    0.151040
    67  C   -0.146035
    68  H    0.155254
    69  C   -0.476163
    70  H    0.154862
    71  H    0.158099
    72  H    0.157194
    73  C   -0.476010
    74  H    0.155314
    75  H    0.157956
    76  H    0.156760
 Sum of Mulliken atomic charges =   0.00000

 Dipole moment (field-independent basis, Debye):
    X=             -1.0554    Y=              0.7323    Z=             -1.1696  Tot=              1.7373
 Quadrupole moment (field-independent basis, Debye-Ang):
   XX=           -211.9127   YY=           -182.2993   ZZ=           -193.4804
   XY=             -4.0768   XZ=              3.2380   YZ=              0.1368

 Normal termination of Gaussian 09 at Fri Apr 28 13:35:35 2017.
