 Gaussian 09, Revision C.01,
 Gaussian 09:  EM64L-G09RevC.01 23-Sep-2011

 ----------------------------------------------------------------------
 #P HF/6-31G* SCF(Conver=6) NoSymm Test Pop=chelpg IOp(6/33=2) GFInput
 GFPrint
 ----------------------------------------------------------------------

 (Enter /scratch/michal/g09/l101.exe)
 ----------------------------------------------
 MEP - Input generated by R.E.D.-III.x MOLECULE
 ----------------------------------------------
 Charge =  0 Multiplicity = 1

                          Input orientation:
 ---------------------------------------------------------------------
 Center     Atomic      Atomic             Coordinates (Angstroms)
 Number     Number       Type             X           Y           Z
 ---------------------------------------------------------------------
      1          6           0        1.759475   -1.247508   -0.074984
      2          1           0        1.872614   -1.118956   -1.158463
      3          6           0        3.151234   -1.312590    0.569052
      4          1           0        3.729711   -2.127211    0.122792
      5          1           0        3.014638   -1.568300    1.632566
      6          6           0        3.913214   -0.005487    0.455260
      7          6           0        3.187437    1.269092    0.897348
      8          6           0        1.746887    1.253188    0.297453
      9          1           0        1.821175    1.452220   -0.780751
     10          1           0        1.163192    2.075159    0.725352
     11          6           0        0.977612   -0.062655    0.491376
     12          1           0        0.781893   -0.240386    1.559212
     13          1           0        0.000000    0.000000    0.000000
     14          6           0        5.172970    0.000000    0.000000
     15          1           0        5.639005   -0.932902   -0.309252
     16          6           0        6.059026    1.207106   -0.092137
     17          1           0        6.316381    1.408101   -1.143705
     18          6           0        5.481215    2.473126    0.561630
     19          1           0        5.698207    2.402829    1.635668
     20          6           0        3.942694    2.526748    0.346399
     21          1           0        3.792519    2.506050   -0.745347
     22          6           0        3.357258    3.864532    0.852808
     23          1           0        3.391162    3.891544    1.947391
     24          1           0        2.297641    3.925895    0.582209
     25          6           0        4.070858    5.115023    0.303905
     26          1           0        3.913453    5.177297   -0.782636
     27          1           0        3.597446    6.001517    0.736929
     28          6           0        5.587477    5.082984    0.581033
     29          6           0        6.120047    3.748828   -0.018501
     30          1           0        5.818096    3.772605   -1.079772
     31          6           0        7.647775    3.911652    0.000000
     32          1           0        8.142226    3.270633   -0.736492
     33          1           0        8.056053    3.634910    0.977196
     34          6           0        7.860734    5.419971   -0.298970
     35          1           0        8.548324    5.866919    0.429033
     36          1           0        8.315561    5.568686   -1.282967
     37          6           0        6.458059    6.112774   -0.221455
     38          1           0        6.035541    6.138658   -1.238693
     39          6           0        5.872253    5.202631    2.095752
     40          1           0        5.438408    4.378575    2.667711
     41          1           0        6.944893    5.213762    2.310774
     42          1           0        5.450097    6.130073    2.496155
     43          6           0        6.547887    7.584507    0.260239
     44          1           0        7.029467    7.584849    1.250179
     45          6           0        5.175351    8.266111    0.400317
     46          1           0        4.618669    8.225052   -0.544544
     47          1           0        5.283438    9.319274    0.675697
     48          1           0        4.558376    7.798732    1.170743
     49          6           0        3.106601    1.279448    2.447350
     50          1           0        2.466464    2.090567    2.808245
     51          1           0        2.689964    0.344932    2.832002
     52          1           0        4.098053    1.396381    2.894873
     53          8           0        7.302661    0.958284    0.611148
     54          8           0        8.036845   -0.063102   -0.129136
     55          1           0        8.802643    0.455747   -0.425559
     56          8           0        1.052572   -2.483853    0.058145
     57          1           0        0.922412   -2.666050    0.999447
     58          6           0        7.459401    8.401995   -0.689335
     59          1           0        8.394646    7.854006   -0.853591
     60          1           0        6.968096    8.466031   -1.671136
     61          6           0        7.826511    9.810421   -0.191355
     62          1           0        6.938031   10.451155   -0.156063
     63          1           0        8.181715    9.733151    0.846138
     64          6           0        8.925353   10.503296   -1.018424
     65          1           0        9.834070    9.885210   -0.979751
     66          1           0        9.185025   11.454540   -0.530532
     67          6           0        8.598569   10.795427   -2.498575
     68          1           0        8.357015    9.843066   -2.992099
     69          6           0        7.388897   11.729836   -2.659293
     70          1           0        7.570055   12.690725   -2.160129
     71          1           0        7.193178   11.937733   -3.717400
     72          1           0        6.475641   11.300825   -2.234325
     73          6           0        9.830081   11.381512   -3.207528
     74          1           0       10.118904   12.341366   -2.760179
     75          1           0        9.631437   11.557461   -4.270918
     76          1           0       10.691749   10.708027   -3.134126
 ---------------------------------------------------------------------

 SCF Done:  E(RHF) =  -1273.68334004     A.U. after    9 cycles

 Alpha  occ. eigenvalues --  -20.62433 -20.62314 -20.55610 -11.28598 -11.27712
 Alpha  occ. eigenvalues --  -11.24654 -11.23637 -11.23339 -11.23135 -11.23068
 Alpha  occ. eigenvalues --  -11.22710 -11.22620 -11.22531 -11.22503 -11.22363
 Alpha  occ. eigenvalues --  -11.22311 -11.22257 -11.22087 -11.21874 -11.21858
 Alpha  occ. eigenvalues --  -11.21819 -11.21709 -11.21649 -11.21618 -11.21545
 Alpha  occ. eigenvalues --  -11.21449 -11.21235 -11.21150 -11.21139 -11.21091
 Alpha  occ. eigenvalues --   -1.45726  -1.34974  -1.22357  -1.15876  -1.13945
 Alpha  occ. eigenvalues --   -1.09872  -1.08182  -1.05943  -1.05480  -1.03193
 Alpha  occ. eigenvalues --   -1.01644  -0.99642  -0.98038  -0.96242  -0.93173
 Alpha  occ. eigenvalues --   -0.92515  -0.92164  -0.91160  -0.90814  -0.85858
 Alpha  occ. eigenvalues --   -0.84141  -0.82964  -0.82576  -0.79477  -0.78293
 Alpha  occ. eigenvalues --   -0.77078  -0.75301  -0.74323  -0.72494  -0.70858
 Alpha  occ. eigenvalues --   -0.67864  -0.66611  -0.66071  -0.65187  -0.64858
 Alpha  occ. eigenvalues --   -0.64021  -0.63383  -0.62459  -0.61781  -0.61590
 Alpha  occ. eigenvalues --   -0.60929  -0.60538  -0.59803  -0.59087  -0.58422
 Alpha  occ. eigenvalues --   -0.57802  -0.57352  -0.56682  -0.56259  -0.55755
 Alpha  occ. eigenvalues --   -0.55554  -0.54988  -0.54372  -0.54118  -0.53820
 Alpha  occ. eigenvalues --   -0.53587  -0.53319  -0.53050  -0.52663  -0.52239
 Alpha  occ. eigenvalues --   -0.50912  -0.50429  -0.50087  -0.49474  -0.49197
 Alpha  occ. eigenvalues --   -0.48461  -0.48132  -0.47981  -0.47593  -0.47156
 Alpha  occ. eigenvalues --   -0.46735  -0.46158  -0.45743  -0.45246  -0.44950
 Alpha  occ. eigenvalues --   -0.44908  -0.44631  -0.43949  -0.43729  -0.43576
 Alpha  occ. eigenvalues --   -0.42868  -0.42323  -0.41891  -0.40717  -0.38973
 Alpha  occ. eigenvalues --   -0.33832
 Alpha virt. eigenvalues --    0.17010   0.20469   0.20995   0.21576   0.21960
 Alpha virt. eigenvalues --    0.22736   0.22950   0.24081   0.24771   0.25189
 Alpha virt. eigenvalues --    0.25380   0.25877   0.26199   0.26726   0.27137

 Mulliken atomic charges:
              1
     1  C    0.193721
     2  H    0.172295
     3  C   -0.366723
     4  H    0.195115
     5  H    0.154602
     6  C    0.069072
     7  C   -0.041028
     8  C   -0.326230
     9  H    0.164419
    10  H    0.171766
    11  C   -0.339483
    12  H    0.144642
    13  H    0.182359
    14  C   -0.249906
    15  H    0.212639
    16  C    0.189691
    17  H    0.166348
    18  C   -0.189204
    19  H    0.191667
    20  C   -0.164826
    21  H    0.158635
    22  C   -0.328705
    23  H    0.165598
    24  H    0.168821
    25  C   -0.298270
    26  H    0.152467
    27  H    0.165964
    28  C   -0.031566
    29  C   -0.164026
    30  H    0.151216
    31  C   -0.301987
    32  H    0.150998
    33  H    0.175023
    34  C   -0.339054
    35  H    0.161347
    36  H    0.166295
    37  C   -0.134641
    38  H    0.152203
    39  C   -0.488305
    40  H    0.164246
    41  H    0.167540
    42  H    0.163762
    43  C   -0.149440
    44  H    0.153399
    45  C   -0.486166
    46  H    0.152563
    47  H    0.165525
    48  H    0.162206
    49  C   -0.478072
    50  H    0.163852
    51  H    0.163455
    52  H    0.174228
    53  O   -0.394760
    54  O   -0.469507
    55  H    0.460475
    56  O   -0.759748
    57  H    0.428144
    58  C   -0.311870
    59  H    0.164813
    60  H    0.151272
    61  C   -0.313206
    62  H    0.159153
    63  H    0.154731
    64  C   -0.298503
    65  H    0.151333
    66  H    0.151308
    67  C   -0.151867
    68  H    0.156483
    69  C   -0.476866
    70  H    0.152343
    71  H    0.158534
    72  H    0.161240
    73  C   -0.471941
    74  H    0.152631
    75  H    0.158209
    76  H    0.157549
 Sum of Mulliken atomic charges =   0.00000

 Dipole moment (field-independent basis, Debye):
    X=              0.0317    Y=              2.6295    Z=              0.2665  Tot=              2.6432
 Quadrupole moment (field-independent basis, Debye-Ang):
   XX=           -189.8744   YY=           -193.5287   ZZ=           -188.4704
   XY=              9.9677   XZ=             -9.3119   YZ=             -3.4167

 Normal termination of Gaussian 09 at Fri Apr 28 12:04:01 2017.
