 Gaussian 09, Revision C.01,
 Gaussian 09:  EM64L-G09RevC.01 23-Sep-2011

 ----------------------------------------------------------------------
 #P HF/6-31G* SCF(Conver=6) NoSymm Test Pop=chelpg IOp(6/33=2) GFInput
 GFPrint
 ----------------------------------------------------------------------

 (Enter /scratch/michal/g09/l101.exe)
 ----------------------------------------------
 MEP - Input generated by R.E.D.-III.x MOLECULE
 ----------------------------------------------
 Charge =  0 Multiplicity = 1

                          Input orientation:
 ---------------------------------------------------------------------
 Center     Atomic      Atomic             Coordinates (Angstroms)
 Number     Number       Type             X           Y           Z
 ---------------------------------------------------------------------
      1          6           0        0.998629   -0.908958   -1.683527
      2          1           0        1.157245    0.055382   -2.181643
      3          6           0        2.208541   -1.814823   -1.950959
      4          1           0        2.352238   -1.934591   -3.029100
      5          1           0        1.971452   -2.814386   -1.551175
      6          6           0        3.481903   -1.299504   -1.306731
      7          6           0        3.416406   -0.933088    0.179327
      8          6           0        2.126256   -0.090629    0.426236
      9          1           0        2.282172    0.910222    0.000000
     10          1           0        1.981238    0.049556    1.502661
     11          6           0        0.842476   -0.677210   -0.180880
     12          1           0        0.588574   -1.631478    0.304005
     13          1           0        0.000000    0.000000    0.000000
     14          6           0        4.605573   -1.196335   -2.028509
     15          1           0        4.595602   -1.461571   -3.083354
     16          6           0        5.943927   -0.773709   -1.498345
     17          1           0        6.262895    0.163783   -1.979802
     18          6           0        6.006600   -0.629762    0.031198
     19          1           0        6.167463   -1.636745    0.438248
     20          6           0        4.661263   -0.063106    0.565444
     21          1           0        4.517929    0.901270    0.051291
     22          6           0        4.748383    0.245316    2.077499
     23          1           0        4.788467   -0.691591    2.643681
     24          1           0        3.833586    0.753984    2.400289
     25          6           0        5.954482    1.117175    2.476813
     26          1           0        5.845058    2.117074    2.032475
     27          1           0        5.935748    1.256653    3.562042
     28          6           0        7.289329    0.509597    2.000412
     29          6           0        7.156931    0.298322    0.463844
     30          1           0        6.900456    1.293017    0.060353
     31          6           0        8.591128    0.000000    0.000000
     32          1           0        8.740976    0.231578   -1.059125
     33          1           0        8.825909   -1.062147    0.122247
     34          6           0        9.469126    0.886397    0.923641
     35          1           0       10.279676    0.297871    1.369751
     36          1           0        9.948612    1.693329    0.361344
     37          6           0        8.535353    1.462449    2.041225
     38          1           0        8.173952    2.448253    1.707074
     39          6           0        7.593333   -0.806645    2.751953
     40          1           0        6.831144   -1.570718    2.579556
     41          1           0        8.553559   -1.236759    2.452134
     42          1           0        7.637094   -0.632988    3.832080
     43          6           0        9.284552    1.693574    3.380169
     44          1           0        9.704298    0.727406    3.693988
     45          6           0        8.374503    2.205441    4.509684
     46          1           0        7.869495    3.135043    4.217870
     47          1           0        8.948699    2.413213    5.417604
     48          1           0        7.605520    1.479077    4.781037
     49          6           0        3.350171   -2.243310    1.008861
     50          1           0        3.148287   -2.037817    2.064773
     51          1           0        2.554988   -2.902714    0.651503
     52          1           0        4.286894   -2.804158    0.938953
     53          8           0        6.938874   -1.778451   -1.820204
     54          8           0        7.127006   -1.772119   -3.267545
     55          1           0        8.044258   -1.456926   -3.320848
     56          8           0       -0.193648   -1.421116   -2.285347
     57          1           0       -0.391981   -2.283461   -1.893927
     58          6           0       10.466006    2.672232    3.155094
     59          1           0       11.076402    2.312661    2.318609
     60          1           0       10.051755    3.640195    2.835295
     61          6           0       11.408863    2.913457    4.350027
     62          1           0       12.157097    3.655908    4.037795
     63          1           0       10.859831    3.376957    5.177626
     64          6           0       12.143908    1.656363    4.841077
     65          1           0       12.579150    1.144663    3.970129
     66          1           0       11.427535    0.948159    5.282108
     67          6           0       13.268605    1.914708    5.864700
     68          1           0       13.962925    2.642867    5.417283
     69          6           0       12.742661    2.512984    7.179636
     70          1           0       12.021803    1.834200    7.654084
     71          1           0       13.560891    2.675756    7.890343
     72          1           0       12.244400    3.475279    7.025175
     73          6           0       14.056614    0.624004    6.138694
     74          1           0       13.409846   -0.141115    6.587125
     75          1           0       14.886400    0.803755    6.831748
     76          1           0       14.474686    0.206735    5.215395
 ---------------------------------------------------------------------

 SCF Done:  E(RHF) =  -1273.68337889     A.U. after    9 cycles

 Alpha  occ. eigenvalues --  -20.62423 -20.62301 -20.55602 -11.28585 -11.27703
 Alpha  occ. eigenvalues --  -11.24644 -11.23625 -11.23327 -11.23109 -11.23054
 Alpha  occ. eigenvalues --  -11.22700 -11.22617 -11.22521 -11.22495 -11.22333
 Alpha  occ. eigenvalues --  -11.22303 -11.22235 -11.22072 -11.21865 -11.21848
 Alpha  occ. eigenvalues --  -11.21800 -11.21705 -11.21622 -11.21597 -11.21582
 Alpha  occ. eigenvalues --  -11.21423 -11.21226 -11.21157 -11.21154 -11.21067
 Alpha  occ. eigenvalues --   -1.45716  -1.34966  -1.22346  -1.15858  -1.13930
 Alpha  occ. eigenvalues --   -1.09866  -1.08165  -1.05958  -1.05468  -1.03178
 Alpha  occ. eigenvalues --   -1.01656  -0.99562  -0.98019  -0.96218  -0.93171
 Alpha  occ. eigenvalues --   -0.92505  -0.92165  -0.91256  -0.90782  -0.85846
 Alpha  occ. eigenvalues --   -0.84398  -0.82946  -0.82559  -0.78792  -0.78079
 Alpha  occ. eigenvalues --   -0.77048  -0.76157  -0.74029  -0.72488  -0.70866
 Alpha  occ. eigenvalues --   -0.67847  -0.66602  -0.66066  -0.65229  -0.64997
 Alpha  occ. eigenvalues --   -0.63996  -0.63484  -0.62513  -0.61712  -0.61311
 Alpha  occ. eigenvalues --   -0.61088  -0.60089  -0.59449  -0.59236  -0.58370
 Alpha  occ. eigenvalues --   -0.57940  -0.57794  -0.56969  -0.55930  -0.55796
 Alpha  occ. eigenvalues --   -0.55356  -0.54963  -0.54492  -0.53869  -0.53679
 Alpha  occ. eigenvalues --   -0.53611  -0.53219  -0.53069  -0.52573  -0.52239
 Alpha  occ. eigenvalues --   -0.51074  -0.50795  -0.50014  -0.49635  -0.49303
 Alpha  occ. eigenvalues --   -0.48440  -0.48146  -0.47971  -0.47545  -0.47123
 Alpha  occ. eigenvalues --   -0.46379  -0.46168  -0.45556  -0.45275  -0.45169
 Alpha  occ. eigenvalues --   -0.44851  -0.44433  -0.44164  -0.43826  -0.43399
 Alpha  occ. eigenvalues --   -0.42806  -0.42310  -0.41884  -0.40701  -0.38983
 Alpha  occ. eigenvalues --   -0.33821
 Alpha virt. eigenvalues --    0.17022   0.20438   0.20916   0.21578   0.22110
 Alpha virt. eigenvalues --    0.22783   0.22978   0.24058   0.24866   0.25109
 Alpha virt. eigenvalues --    0.25374   0.25735   0.26353   0.26629   0.26932

 Mulliken atomic charges:
              1
     1  C    0.193718
     2  H    0.172293
     3  C   -0.366683
     4  H    0.195104
     5  H    0.154576
     6  C    0.068988
     7  C   -0.040923
     8  C   -0.326208
     9  H    0.164430
    10  H    0.171776
    11  C   -0.339509
    12  H    0.144630
    13  H    0.182346
    14  C   -0.249918
    15  H    0.212636
    16  C    0.189807
    17  H    0.166340
    18  C   -0.189307
    19  H    0.191592
    20  C   -0.164891
    21  H    0.158647
    22  C   -0.328683
    23  H    0.165546
    24  H    0.168790
    25  C   -0.298274
    26  H    0.152525
    27  H    0.165837
    28  C   -0.031166
    29  C   -0.164013
    30  H    0.151262
    31  C   -0.301890
    32  H    0.150859
    33  H    0.174999
    34  C   -0.339273
    35  H    0.161330
    36  H    0.166617
    37  C   -0.134384
    38  H    0.152142
    39  C   -0.488447
    40  H    0.164243
    41  H    0.167684
    42  H    0.163311
    43  C   -0.155326
    44  H    0.159764
    45  C   -0.485623
    46  H    0.152992
    47  H    0.164496
    48  H    0.161866
    49  C   -0.478121
    50  H    0.163812
    51  H    0.163445
    52  H    0.174210
    53  O   -0.394745
    54  O   -0.469510
    55  H    0.460471
    56  O   -0.759765
    57  H    0.428133
    58  C   -0.309436
    59  H    0.164546
    60  H    0.150407
    61  C   -0.313790
    62  H    0.155227
    63  H    0.159170
    64  C   -0.299965
    65  H    0.150936
    66  H    0.151195
    67  C   -0.146877
    68  H    0.151514
    69  C   -0.477115
    70  H    0.151307
    71  H    0.159046
    72  H    0.162747
    73  C   -0.472323
    74  H    0.152487
    75  H    0.158542
    76  H    0.157827
 Sum of Mulliken atomic charges =   0.00000

 Dipole moment (field-independent basis, Debye):
    X=              1.3298    Y=              1.0728    Z=              2.1395  Tot=              2.7381
 Quadrupole moment (field-independent basis, Debye-Ang):
   XX=           -179.6350   YY=           -192.1943   ZZ=           -197.1342
   XY=             13.0566   XZ=             -1.3281   YZ=             -5.3690

 Normal termination of Gaussian 09 at Fri Apr 28 12:02:39 2017.
