 Gaussian 09, Revision C.01,
 Gaussian 09:  EM64L-G09RevC.01 23-Sep-2011

 ----------------------------------------------------------------------
 #P HF/6-31G* SCF(Conver=6) NoSymm Test Pop=chelpg IOp(6/33=2) GFInput
 GFPrint
 ----------------------------------------------------------------------

 (Enter /scratch/michal/g09/l101.exe)
 ----------------------------------------------
 MEP - Input generated by R.E.D.-III.x MOLECULE
 ----------------------------------------------
 Charge =  0 Multiplicity = 1

                          Input orientation:
 ---------------------------------------------------------------------
 Center     Atomic      Atomic             Coordinates (Angstroms)
 Number     Number       Type             X           Y           Z
 ---------------------------------------------------------------------
      1          6           0        7.522398    2.214740    0.060995
      2          1           0        7.362720    2.181334    1.145719
      3          6           0        6.826943    1.008099   -0.584228
      4          1           0        7.209448    0.080836   -0.146924
      5          1           0        7.106454    0.993009   -1.650420
      6          6           0        5.316066    1.063281   -0.456523
      7          6           0        4.623834    2.360909   -0.885497
      8          6           0        5.413361    3.565724   -0.285198
      9          1           0        5.214420    3.603412    0.794947
     10          1           0        5.028222    4.501129   -0.704679
     11          6           0        6.934914    3.512614   -0.492453
     12          1           0        7.180498    3.589247   -1.562042
     13          1           0        7.409291    4.369094    0.000000
     14          6           0        4.641313    0.000000    0.000000
     15          1           0        5.182577   -0.894384    0.300364
     16          6           0        3.148207   -0.102556    0.105112
     17          1           0        2.849344   -0.211929    1.159235
     18          6           0        2.383310    1.063395   -0.542741
     19          1           0        2.327546    0.845673   -1.617147
     20          6           0        3.161490    2.392438   -0.322638
     21          1           0        3.267954    2.498483    0.769370
     22          6           0        2.344479    3.612088   -0.810306
     23          1           0        2.293853    3.611174   -1.904334
     24          1           0        2.865858    4.534384   -0.532484
     25          6           0        0.912267    3.673531   -0.245639
     26          1           0        0.958792    3.827413    0.841536
     27          1           0        0.404716    4.550120   -0.665096
     28          6           0        0.127316    2.380814   -0.535674
     29          6           0        0.965129    1.200326    0.041361
     30          1           0        1.112543    1.446294    1.106547
     31          6           0        0.000000    0.000000    0.000000
     32          1           0        0.261919   -0.764630    0.737947
     33          1           0        0.031677   -0.488694   -0.978935
     34          6           0       -1.394398    0.630752    0.274760
     35          1           0       -2.110777    0.333674   -0.497838
     36          1           0       -1.816261    0.293980    1.228245
     37          6           0       -1.189506    2.178067    0.291972
     38          1           0       -0.901841    2.431924    1.321879
     39          6           0       -0.104522    2.229133   -2.057160
     40          1           0        0.829003    2.061051   -2.599978
     41          1           0       -0.767690    1.393452   -2.294150
     42          1           0       -0.555588    3.135577   -2.470593
     43          6           0       -2.508625    2.965394    0.044758
     44          1           0       -3.213023    2.515575    0.760924
     45          6           0       -3.169205    2.801501   -1.339219
     46          1           0       -2.668374    3.396516   -2.108547
     47          1           0       -4.208785    3.145125   -1.291837
     48          1           0       -3.186631    1.762032   -1.679350
     49          6           0        4.645028    2.444034   -2.435286
     50          1           0        4.299921    3.421137   -2.787573
     51          1           0        5.653909    2.297506   -2.829613
     52          1           0        4.011339    1.672238   -2.882136
     53          8           0        2.686953   -1.286274   -0.594019
     54          8           0        3.163690   -2.452889    0.142250
     55          1           0        2.318103   -2.823208    0.444523
     56          8           0        8.943901    2.151195   -0.084883
     57          1           0        9.159315    2.169475   -1.027990
     58          6           0       -2.434509    4.474595    0.383885
     59          1           0       -1.742518    4.963881   -0.313417
     60          1           0       -3.422231    4.907666    0.169163
     61          6           0       -2.050372    4.869607    1.822880
     62          1           0       -1.044783    4.502488    2.065367
     63          1           0       -1.982202    5.964084    1.853476
     64          6           0       -3.034281    4.389789    2.901096
     65          1           0       -3.096472    3.294013    2.872712
     66          1           0       -4.044290    4.757209    2.661088
     67          6           0       -2.682194    4.810048    4.343773
     68          1           0       -1.647135    4.489313    4.539750
     69          6           0       -2.751249    6.331812    4.551816
     70          1           0       -3.763055    6.705446    4.347054
     71          1           0       -2.503723    6.596256    5.586163
     72          1           0       -2.057341    6.871816    3.900060
     73          6           0       -3.593067    4.090823    5.351604
     74          1           0       -4.643260    4.370058    5.197091
     75          1           0       -3.329615    4.350955    6.383130
     76          1           0       -3.520223    3.001842    5.250824
 ---------------------------------------------------------------------

 SCF Done:  E(RHF) =  -1273.67666312     A.U. after    9 cycles

 Alpha  occ. eigenvalues --  -20.62440 -20.62319 -20.55618 -11.28609 -11.27721
 Alpha  occ. eigenvalues --  -11.24676 -11.23648 -11.23397 -11.23138 -11.23084
 Alpha  occ. eigenvalues --  -11.22726 -11.22722 -11.22689 -11.22513 -11.22324
 Alpha  occ. eigenvalues --  -11.22321 -11.22275 -11.22124 -11.21905 -11.21886
 Alpha  occ. eigenvalues --  -11.21870 -11.21773 -11.21718 -11.21662 -11.21562
 Alpha  occ. eigenvalues --  -11.21494 -11.21243 -11.21202 -11.21089 -11.21049
 Alpha  occ. eigenvalues --   -1.45733  -1.34982  -1.22366  -1.15871  -1.13922
 Alpha  occ. eigenvalues --   -1.09803  -1.08147  -1.05959  -1.05497  -1.03187
 Alpha  occ. eigenvalues --   -1.01657  -0.99809  -0.97978  -0.96316  -0.92798
 Alpha  occ. eigenvalues --   -0.92570  -0.92521  -0.91512  -0.90705  -0.85868
 Alpha  occ. eigenvalues --   -0.84094  -0.82937  -0.82774  -0.79051  -0.78399
 Alpha  occ. eigenvalues --   -0.76965  -0.76254  -0.74443  -0.71988  -0.70540
 Alpha  occ. eigenvalues --   -0.67909  -0.66621  -0.65584  -0.65216  -0.64993
 Alpha  occ. eigenvalues --   -0.63614  -0.63329  -0.62849  -0.61877  -0.61479
 Alpha  occ. eigenvalues --   -0.60592  -0.60557  -0.59906  -0.59281  -0.59164
 Alpha  occ. eigenvalues --   -0.57955  -0.57562  -0.56523  -0.55974  -0.55842
 Alpha  occ. eigenvalues --   -0.55459  -0.54803  -0.54560  -0.53986  -0.53847
 Alpha  occ. eigenvalues --   -0.53510  -0.53218  -0.52986  -0.52733  -0.52264
 Alpha  occ. eigenvalues --   -0.51428  -0.50621  -0.50177  -0.49497  -0.48698
 Alpha  occ. eigenvalues --   -0.48646  -0.48412  -0.47843  -0.47691  -0.47338
 Alpha  occ. eigenvalues --   -0.46991  -0.46217  -0.45537  -0.45425  -0.45184
 Alpha  occ. eigenvalues --   -0.44958  -0.44620  -0.43945  -0.43651  -0.43044
 Alpha  occ. eigenvalues --   -0.42544  -0.42290  -0.41922  -0.40666  -0.38966
 Alpha  occ. eigenvalues --   -0.33840
 Alpha virt. eigenvalues --    0.17000   0.19925   0.20807   0.21418   0.22080
 Alpha virt. eigenvalues --    0.22433   0.22969   0.23666   0.24664   0.24885
 Alpha virt. eigenvalues --    0.24960   0.25603   0.26174   0.26867   0.27099

 Mulliken atomic charges:
              1
     1  C    0.193740
     2  H    0.172288
     3  C   -0.366716
     4  H    0.195166
     5  H    0.154617
     6  C    0.069036
     7  C   -0.041003
     8  C   -0.326315
     9  H    0.164343
    10  H    0.171800
    11  C   -0.339471
    12  H    0.144690
    13  H    0.182377
    14  C   -0.250277
    15  H    0.212828
    16  C    0.191276
    17  H    0.166107
    18  C   -0.190558
    19  H    0.191883
    20  C   -0.164867
    21  H    0.158324
    22  C   -0.328733
    23  H    0.167115
    24  H    0.168892
    25  C   -0.302105
    26  H    0.154172
    27  H    0.163886
    28  C   -0.024198
    29  C   -0.166220
    30  H    0.150673
    31  C   -0.301653
    32  H    0.150903
    33  H    0.175720
    34  C   -0.331544
    35  H    0.162311
    36  H    0.161840
    37  C   -0.153690
    38  H    0.158249
    39  C   -0.485963
    40  H    0.163595
    41  H    0.168530
    42  H    0.162054
    43  C   -0.148203
    44  H    0.158238
    45  C   -0.481755
    46  H    0.156614
    47  H    0.159049
    48  H    0.160921
    49  C   -0.477938
    50  H    0.163911
    51  H    0.163504
    52  H    0.174138
    53  O   -0.394957
    54  O   -0.469428
    55  H    0.460532
    56  O   -0.759732
    57  H    0.428158
    58  C   -0.303448
    59  H    0.155652
    60  H    0.153535
    61  C   -0.317198
    62  H    0.155300
    63  H    0.160061
    64  C   -0.300453
    65  H    0.155557
    66  H    0.147619
    67  C   -0.146354
    68  H    0.150006
    69  C   -0.476433
    70  H    0.152388
    71  H    0.158915
    72  H    0.162074
    73  C   -0.472389
    74  H    0.153345
    75  H    0.158679
    76  H    0.156992
 Sum of Mulliken atomic charges =   0.00000

 Dipole moment (field-independent basis, Debye):
    X=             -2.2218    Y=              1.4661    Z=             -0.1534  Tot=              2.6663
 Quadrupole moment (field-independent basis, Debye-Ang):
   XX=           -215.7105   YY=           -187.2252   ZZ=           -189.1443
   XY=              6.2153   XZ=            -10.2891   YZ=             -7.2025

 Normal termination of Gaussian 09 at Fri Apr 28 13:06:12 2017.
