 Gaussian 09, Revision C.01,
 Gaussian 09:  EM64L-G09RevC.01 23-Sep-2011

 ----------------------------------------------------------------------
 #P HF/6-31G* SCF(Conver=6) NoSymm Test Pop=chelpg IOp(6/33=2) GFInput
 GFPrint
 ----------------------------------------------------------------------

 (Enter /scratch/michal/g09/l101.exe)
 ----------------------------------------------
 MEP - Input generated by R.E.D.-III.x MOLECULE
 ----------------------------------------------
 Charge =  0 Multiplicity = 1

                          Input orientation:
 ---------------------------------------------------------------------
 Center     Atomic      Atomic             Coordinates (Angstroms)
 Number     Number       Type             X           Y           Z
 ---------------------------------------------------------------------
      1          6           0        1.759367   -1.248278   -0.064102
      2          1           0        1.873728   -1.127455   -1.148336
      3          6           0        3.150512   -1.308710    0.581691
      4          1           0        3.729261   -2.126657    0.141955
      5          1           0        3.013147   -1.556295    1.647011
      6          6           0        3.912328   -0.002426    0.458119
      7          6           0        3.186595    1.274972    0.892292
      8          6           0        1.746371    1.255124    0.291518
      9          1           0        1.821249    1.447739   -0.787825
     10          1           0        1.162097    2.079322    0.714161
     11          6           0        0.976942   -0.059476    0.493107
     12          1           0        0.779700   -0.230119    1.561845
     13          1           0        0.000000    0.000000    0.000000
     14          6           0        5.171047    0.000000    0.000000
     15          1           0        5.636432   -0.934946   -0.303981
     16          6           0        6.056412    1.206700   -0.102835
     17          1           0        6.306864    1.403979   -1.156789
     18          6           0        5.481978    2.474588    0.550274
     19          1           0        5.698801    2.402268    1.623937
     20          6           0        3.942214    2.529721    0.334807
     21          1           0        3.792579    2.502752   -0.756947
     22          6           0        3.352153    3.870374    0.832079
     23          1           0        3.386686    3.907400    1.926118
     24          1           0        2.292408    3.925404    0.560851
     25          6           0        4.064132    5.115827    0.269967
     26          1           0        3.904016    5.164733   -0.816297
     27          1           0        3.597417    6.011120    0.697187
     28          6           0        5.577802    5.085476    0.552267
     29          6           0        6.122910    3.747748   -0.032456
     30          1           0        5.830228    3.758884   -1.095988
     31          6           0        7.653419    3.920225    0.000000
     32          1           0        8.154733    3.289996   -0.741183
     33          1           0        8.055064    3.631625    0.976487
     34          6           0        7.865039    5.435802   -0.275465
     35          1           0        8.508263    5.880467    0.490558
     36          1           0        8.364940    5.612414   -1.234325
     37          6           0        6.448391    6.091440   -0.277924
     38          1           0        6.072170    5.989619   -1.305114
     39          6           0        5.838377    5.195800    2.072565
     40          1           0        5.481530    4.316893    2.615393
     41          1           0        6.900808    5.305628    2.303985
     42          1           0        5.318552    6.062396    2.490874
     43          6           0        6.490558    7.626393   -0.023726
     44          1           0        7.230657    7.986404   -0.757392
     45          6           0        7.005437    8.089044    1.354477
     46          1           0        6.244531    7.985701    2.133476
     47          1           0        7.276644    9.149792    1.307356
     48          1           0        7.894033    7.541299    1.681066
     49          6           0        3.104504    1.294668    2.442143
     50          1           0        2.465059    2.108676    2.797673
     51          1           0        2.686346    0.362977    2.832007
     52          1           0        4.095655    1.413126    2.889960
     53          8           0        7.304532    0.960802    0.593233
     54          8           0        8.033862   -0.063468   -0.147831
     55          1           0        8.797639    0.454326   -0.451261
     56          8           0        1.052251   -2.483617    0.077023
     57          1           0        0.920353   -2.658777    1.019420
     58          6           0        5.175713    8.375330   -0.347879
     59          1           0        4.376523    8.029545    0.321020
     60          1           0        5.331786    9.434253   -0.096689
     61          6           0        4.693995    8.301605   -1.804893
     62          1           0        5.515015    8.608158   -2.470448
     63          1           0        4.453889    7.266171   -2.069386
     64          6           0        3.473351    9.196234   -2.069428
     65          1           0        3.713622   10.219146   -1.745908
     66          1           0        2.635838    8.866934   -1.435212
     67          6           0        2.995434    9.249592   -3.534900
     68          1           0        3.858036    9.539586   -4.154795
     69          6           0        2.487477    7.889780   -4.041255
     70          1           0        1.639582    7.542528   -3.436365
     71          1           0        2.145435    7.961932   -5.079970
     72          1           0        3.263312    7.118522   -4.003609
     73          6           0        1.911848   10.325635   -3.709238
     74          1           0        1.024861   10.087825   -3.107989
     75          1           0        1.592339   10.403255   -4.754705
     76          1           0        2.272654   11.311443   -3.394185
 ---------------------------------------------------------------------

 SCF Done:  E(RHF) =  -1273.67858099     A.U. after    9 cycles

 Alpha  occ. eigenvalues --  -20.62434 -20.62313 -20.55613 -11.28602 -11.27715
 Alpha  occ. eigenvalues --  -11.24674 -11.23642 -11.23395 -11.23134 -11.23082
 Alpha  occ. eigenvalues --  -11.22784 -11.22723 -11.22688 -11.22505 -11.22320
 Alpha  occ. eigenvalues --  -11.22305 -11.22271 -11.22132 -11.21926 -11.21884
 Alpha  occ. eigenvalues --  -11.21864 -11.21746 -11.21691 -11.21653 -11.21546
 Alpha  occ. eigenvalues --  -11.21485 -11.21257 -11.21211 -11.21097 -11.21060
 Alpha  occ. eigenvalues --   -1.45729  -1.34977  -1.22360  -1.15869  -1.13917
 Alpha  occ. eigenvalues --   -1.09782  -1.08203  -1.06012  -1.05495  -1.03187
 Alpha  occ. eigenvalues --   -1.01701  -0.99937  -0.97980  -0.96308  -0.92750
 Alpha  occ. eigenvalues --   -0.92607  -0.92539  -0.91500  -0.90561  -0.85864
 Alpha  occ. eigenvalues --   -0.83765  -0.82926  -0.82539  -0.79419  -0.78391
 Alpha  occ. eigenvalues --   -0.76992  -0.76081  -0.74650  -0.72133  -0.70635
 Alpha  occ. eigenvalues --   -0.67900  -0.66616  -0.65678  -0.65181  -0.64986
 Alpha  occ. eigenvalues --   -0.64189  -0.63485  -0.62617  -0.61751  -0.61448
 Alpha  occ. eigenvalues --   -0.60739  -0.60199  -0.59598  -0.59378  -0.58875
 Alpha  occ. eigenvalues --   -0.57875  -0.57421  -0.57101  -0.56100  -0.55826
 Alpha  occ. eigenvalues --   -0.55720  -0.55271  -0.54078  -0.53996  -0.53885
 Alpha  occ. eigenvalues --   -0.53522  -0.53105  -0.52786  -0.52303  -0.51870
 Alpha  occ. eigenvalues --   -0.51142  -0.50480  -0.50012  -0.49658  -0.49270
 Alpha  occ. eigenvalues --   -0.48617  -0.48342  -0.48021  -0.47762  -0.47187
 Alpha  occ. eigenvalues --   -0.46735  -0.46205  -0.45698  -0.45383  -0.45329
 Alpha  occ. eigenvalues --   -0.45042  -0.44834  -0.44278  -0.43849  -0.43012
 Alpha  occ. eigenvalues --   -0.42316  -0.42185  -0.41898  -0.40675  -0.38999
 Alpha  occ. eigenvalues --   -0.33836
 Alpha virt. eigenvalues --    0.17006   0.20004   0.20784   0.21323   0.22197
 Alpha virt. eigenvalues --    0.22529   0.22875   0.23838   0.24330   0.24835
 Alpha virt. eigenvalues --    0.25002   0.25504   0.26234   0.27055   0.27136

 Mulliken atomic charges:
              1
     1  C    0.193717
     2  H    0.172335
     3  C   -0.366727
     4  H    0.195164
     5  H    0.154594
     6  C    0.069060
     7  C   -0.041086
     8  C   -0.326246
     9  H    0.164480
    10  H    0.171693
    11  C   -0.339482
    12  H    0.144635
    13  H    0.182401
    14  C   -0.250254
    15  H    0.212838
    16  C    0.191101
    17  H    0.166179
    18  C   -0.190292
    19  H    0.191853
    20  C   -0.164854
    21  H    0.158436
    22  C   -0.328626
    23  H    0.167163
    24  H    0.168824
    25  C   -0.302056
    26  H    0.153578
    27  H    0.163638
    28  C   -0.024300
    29  C   -0.166519
    30  H    0.150791
    31  C   -0.301657
    32  H    0.150899
    33  H    0.175593
    34  C   -0.331271
    35  H    0.162160
    36  H    0.162700
    37  C   -0.155047
    38  H    0.159696
    39  C   -0.485896
    40  H    0.163590
    41  H    0.168526
    42  H    0.162044
    43  C   -0.141851
    44  H    0.152413
    45  C   -0.482964
    46  H    0.157274
    47  H    0.159076
    48  H    0.161038
    49  C   -0.477932
    50  H    0.163930
    51  H    0.163485
    52  H    0.174113
    53  O   -0.394922
    54  O   -0.469415
    55  H    0.460525
    56  O   -0.759723
    57  H    0.428148
    58  C   -0.301565
    59  H    0.153724
    60  H    0.153738
    61  C   -0.314023
    62  H    0.149494
    63  H    0.161272
    64  C   -0.295576
    65  H    0.152660
    66  H    0.147334
    67  C   -0.147456
    68  H    0.151757
    69  C   -0.476239
    70  H    0.151594
    71  H    0.159416
    72  H    0.160211
    73  C   -0.472619
    74  H    0.152727
    75  H    0.158677
    76  H    0.158303
 Sum of Mulliken atomic charges =   0.00000

 Dipole moment (field-independent basis, Debye):
    X=              0.0600    Y=              2.7380    Z=              0.1220  Tot=              2.7413
 Quadrupole moment (field-independent basis, Debye-Ang):
   XX=           -189.6415   YY=           -191.2967   ZZ=           -188.5993
   XY=             11.7453   XZ=            -11.2666   YZ=             -5.2941

 Normal termination of Gaussian 09 at Fri Apr 28 12:42:02 2017.
