 Gaussian 09, Revision C.01,
 Gaussian 09:  EM64L-G09RevC.01 23-Sep-2011

 ----------------------------------------------------------------------
 #P HF/6-31G* SCF(Conver=6) NoSymm Test Pop=chelpg IOp(6/33=2) GFInput
 GFPrint
 ----------------------------------------------------------------------

 (Enter /scratch/michal/g09/l101.exe)
 ----------------------------------------------
 MEP - Input generated by R.E.D.-III.x MOLECULE
 ----------------------------------------------
 Charge =  0 Multiplicity = 1

                          Input orientation:
 ---------------------------------------------------------------------
 Center     Atomic      Atomic             Coordinates (Angstroms)
 Number     Number       Type             X           Y           Z
 ---------------------------------------------------------------------
      1          6           0        0.999156   -0.909773   -1.682756
      2          1           0        1.158530    0.054294   -2.181179
      3          6           0        2.208605   -1.816534   -1.948921
      4          1           0        2.352754   -1.937267   -3.026894
      5          1           0        1.970573   -2.815623   -1.548535
      6          6           0        3.482163   -1.301866   -1.304605
      7          6           0        3.416575   -0.932709    0.180806
      8          6           0        2.126075   -0.090421    0.426779
      9          1           0        2.281871    0.910209    0.000000
     10          1           0        1.980631    0.050291    1.503071
     11          6           0        0.842462   -0.677375   -0.180339
     12          1           0        0.588304   -1.631419    0.304870
     13          1           0        0.000000    0.000000    0.000000
     14          6           0        4.606508   -1.201839   -2.025805
     15          1           0        4.596824   -1.469114   -3.080132
     16          6           0        5.945037   -0.779754   -1.495732
     17          1           0        6.266086    0.155278   -1.980586
     18          6           0        6.006666   -0.629911    0.033317
     19          1           0        6.167027   -1.635285    0.444516
     20          6           0        4.661092   -0.061426    0.564814
     21          1           0        4.517873    0.901277    0.047529
     22          6           0        4.748116    0.251736    2.075760
     23          1           0        4.789169   -0.683389    2.644818
     24          1           0        3.833005    0.760612    2.397256
     25          6           0        5.953259    1.126326    2.471885
     26          1           0        5.842667    2.124385    2.023695
     27          1           0        5.934183    1.269923    3.556558
     28          6           0        7.289046    0.518397    1.998122
     29          6           0        7.156779    0.300071    0.462477
     30          1           0        6.900189    1.292903    0.054509
     31          6           0        8.590988    0.000000    0.000000
     32          1           0        8.740922    0.226871   -1.060128
     33          1           0        8.825928   -1.061518    0.127072
     34          6           0        9.468599    0.890823    0.919731
     35          1           0       10.278507    0.303725    1.368879
     36          1           0        9.948723    1.694847    0.353866
     37          6           0        8.534342    1.472328    2.034104
     38          1           0        8.172179    2.455775    1.693965
     39          6           0        7.594161   -0.794092    2.755753
     40          1           0        6.832614   -1.559595    2.586775
     41          1           0        8.554710   -1.225038    2.458086
     42          1           0        7.637531   -0.615446    3.835115
     43          6           0        9.283226    1.713172    3.371703
     44          1           0        9.701362    0.748814    3.694031
     45          6           0        8.371695    2.233585    4.496199
     46          1           0        7.869161    3.162340    4.197501
     47          1           0        8.943484    2.445488    5.404514
     48          1           0        7.600611    1.510215    4.769447
     49          6           0        3.350943   -2.241482    1.012695
     50          1           0        3.150481   -2.033974    2.068503
     51          1           0        2.554948   -2.901190    0.657552
     52          1           0        4.287291   -2.802932    0.942623
     53          8           0        6.938661   -1.787392   -1.812641
     54          8           0        7.127827   -1.787342   -3.259890
     55          1           0        8.046244   -1.475691   -3.313736
     56          8           0       -0.193072   -1.421497   -2.285022
     57          1           0       -0.392276   -2.283475   -1.893242
     58          6           0       10.465780    2.688513    3.138590
     59          1           0       11.078680    2.317587    2.310403
     60          1           0       10.053625    3.649958    2.797197
     61          6           0       11.389885    2.964623    4.341743
     62          1           0       12.151484    3.686224    4.019644
     63          1           0       10.828725    3.475265    5.133808
     64          6           0       12.081547    1.734971    4.960519
     65          1           0       11.319427    1.061618    5.375849
     66          1           0       12.679474    2.072769    5.819969
     67          6           0       12.999207    0.914976    4.028918
     68          1           0       12.400586    0.565921    3.175114
     69          6           0       14.167692    1.745721    3.474794
     70          1           0       14.786213    2.140179    4.291540
     71          1           0       14.813998    1.133783    2.835340
     72          1           0       13.823889    2.596025    2.877037
     73          6           0       13.523700   -0.330115    4.762202
     74          1           0       14.137125   -0.045078    5.626615
     75          1           0       14.144821   -0.948304    4.103989
     76          1           0       12.700862   -0.953890    5.130132
 ---------------------------------------------------------------------

 SCF Done:  E(RHF) =  -1273.68181472     A.U. after    9 cycles

 Alpha  occ. eigenvalues --  -20.62436 -20.62317 -20.55611 -11.28600 -11.27712
 Alpha  occ. eigenvalues --  -11.24658 -11.23639 -11.23341 -11.23140 -11.23073
 Alpha  occ. eigenvalues --  -11.22712 -11.22593 -11.22574 -11.22505 -11.22371
 Alpha  occ. eigenvalues --  -11.22313 -11.22262 -11.22089 -11.21877 -11.21859
 Alpha  occ. eigenvalues --  -11.21823 -11.21718 -11.21636 -11.21621 -11.21576
 Alpha  occ. eigenvalues --  -11.21459 -11.21259 -11.21180 -11.21173 -11.21080
 Alpha  occ. eigenvalues --   -1.45728  -1.34975  -1.22361  -1.15881  -1.13951
 Alpha  occ. eigenvalues --   -1.09932  -1.08121  -1.05866  -1.05483  -1.03199
 Alpha  occ. eigenvalues --   -1.01624  -0.99499  -0.98047  -0.96230  -0.93212
 Alpha  occ. eigenvalues --   -0.92569  -0.92186  -0.91385  -0.90810  -0.85861
 Alpha  occ. eigenvalues --   -0.84524  -0.83005  -0.82688  -0.79229  -0.78255
 Alpha  occ. eigenvalues --   -0.77085  -0.75490  -0.73490  -0.72558  -0.70891
 Alpha  occ. eigenvalues --   -0.67860  -0.66614  -0.66123  -0.65169  -0.64674
 Alpha  occ. eigenvalues --   -0.63922  -0.63511  -0.63018  -0.62135  -0.61567
 Alpha  occ. eigenvalues --   -0.60754  -0.60310  -0.59542  -0.58885  -0.58769
 Alpha  occ. eigenvalues --   -0.57863  -0.57567  -0.56558  -0.56123  -0.55973
 Alpha  occ. eigenvalues --   -0.55557  -0.55128  -0.54669  -0.53863  -0.53727
 Alpha  occ. eigenvalues --   -0.53647  -0.53228  -0.52806  -0.52498  -0.52220
 Alpha  occ. eigenvalues --   -0.51420  -0.50752  -0.49991  -0.49495  -0.49008
 Alpha  occ. eigenvalues --   -0.48447  -0.48226  -0.47932  -0.47629  -0.47188
 Alpha  occ. eigenvalues --   -0.46924  -0.46178  -0.45792  -0.45220  -0.44963
 Alpha  occ. eigenvalues --   -0.44939  -0.44432  -0.44018  -0.43793  -0.43351
 Alpha  occ. eigenvalues --   -0.42701  -0.42318  -0.41864  -0.40720  -0.39002
 Alpha  occ. eigenvalues --   -0.33834
 Alpha virt. eigenvalues --    0.17007   0.20095   0.20622   0.21520   0.21718
 Alpha virt. eigenvalues --    0.22680   0.23063   0.23526   0.24726   0.25141
 Alpha virt. eigenvalues --    0.25388   0.25741   0.26421   0.26564   0.27230

 Mulliken atomic charges:
              1
     1  C    0.193746
     2  H    0.172293
     3  C   -0.366701
     4  H    0.195124
     5  H    0.154597
     6  C    0.069018
     7  C   -0.040961
     8  C   -0.326286
     9  H    0.164441
    10  H    0.171800
    11  C   -0.339520
    12  H    0.144638
    13  H    0.182378
    14  C   -0.249843
    15  H    0.212633
    16  C    0.189688
    17  H    0.166392
    18  C   -0.189220
    19  H    0.191616
    20  C   -0.164888
    21  H    0.158693
    22  C   -0.328693
    23  H    0.165519
    24  H    0.168902
    25  C   -0.298359
    26  H    0.152618
    27  H    0.165888
    28  C   -0.031035
    29  C   -0.164175
    30  H    0.151393
    31  C   -0.301927
    32  H    0.151191
    33  H    0.175129
    34  C   -0.342779
    35  H    0.163265
    36  H    0.166900
    37  C   -0.133736
    38  H    0.152467
    39  C   -0.488388
    40  H    0.164414
    41  H    0.167312
    42  H    0.163300
    43  C   -0.154655
    44  H    0.157614
    45  C   -0.485932
    46  H    0.153068
    47  H    0.165442
    48  H    0.161846
    49  C   -0.478050
    50  H    0.163792
    51  H    0.163479
    52  H    0.174243
    53  O   -0.394811
    54  O   -0.469484
    55  H    0.460488
    56  O   -0.759766
    57  H    0.428145
    58  C   -0.313872
    59  H    0.168337
    60  H    0.150805
    61  C   -0.317783
    62  H    0.159833
    63  H    0.159259
    64  C   -0.302977
    65  H    0.155168
    66  H    0.151762
    67  C   -0.154625
    68  H    0.156433
    69  C   -0.476846
    70  H    0.152710
    71  H    0.158591
    72  H    0.161830
    73  C   -0.471603
    74  H    0.153086
    75  H    0.158489
    76  H    0.157143
 Sum of Mulliken atomic charges =   0.00000

 Dipole moment (field-independent basis, Debye):
    X=              1.2215    Y=              1.0294    Z=              2.1372  Tot=              2.6682
 Quadrupole moment (field-independent basis, Debye-Ang):
   XX=           -182.3737   YY=           -192.3851   ZZ=           -196.6089
   XY=             12.1448   XZ=             -1.5199   YZ=             -5.1946

 Normal termination of Gaussian 09 at Fri Apr 28 12:13:39 2017.
