 Gaussian 09, Revision C.01,
 Gaussian 09:  EM64L-G09RevC.01 23-Sep-2011

 ----------------------------------------------------------------------
 #P HF/6-31G* SCF(Conver=6) NoSymm Test Pop=chelpg IOp(6/33=2) GFInput
 GFPrint
 ----------------------------------------------------------------------

 (Enter /scratch/michal/g09/l101.exe)
 ----------------------------------------------
 MEP - Input generated by R.E.D.-III.x MOLECULE
 ----------------------------------------------
 Charge =  0 Multiplicity = 1

                          Input orientation:
 ---------------------------------------------------------------------
 Center     Atomic      Atomic             Coordinates (Angstroms)
 Number     Number       Type             X           Y           Z
 ---------------------------------------------------------------------
      1          6           0       -1.011011    1.980083    1.688535
      2          1           0       -0.995147    1.001354    2.183596
      3          6           0        0.316849    2.700063    1.961220
      4          1           0        0.473900    2.794426    3.040013
      5          1           0        0.228246    3.724628    1.564356
      6          6           0        1.503460    2.007318    1.317737
      7          6           0        1.389480    1.660500   -0.170089
      8          6           0       -0.008664    1.014478   -0.422411
      9          1           0        0.000000    0.000000    0.000000
     10          1           0       -0.170472    0.900942   -1.499570
     11          6           0       -1.195534    1.778262    0.184844
     12          1           0       -1.308004    2.760706   -0.297091
     13          1           0       -2.126520    1.230355    0.000000
     14          6           0        2.597434    1.737713    2.042123
     15          1           0        2.622681    1.996685    3.098246
     16          6           0        3.861163    1.125947    1.513433
     17          1           0        4.035829    0.147763    1.987915
     18          6           0        3.908642    0.986974   -0.017114
     19          1           0        4.210774    1.964956   -0.413611
     20          6           0        2.496703    0.621585   -0.558728
     21          1           0        2.214744   -0.314438   -0.049443
     22          6           0        2.537907    0.309619   -2.073175
     23          1           0        2.717120    1.231592   -2.636543
     24          1           0        1.557750   -0.056803   -2.396639
     25          6           0        3.602455   -0.730734   -2.471136
     26          1           0        3.342011   -1.702939   -2.029380
     27          1           0        3.575695   -0.862696   -3.559100
     28          6           0        5.008244   -0.323013   -1.992207
     29          6           0        4.916114   -0.092785   -0.453656
     30          1           0        4.522559   -1.038703   -0.044725
     31          6           0        6.385524    0.000000    0.000000
     32          1           0        6.508521   -0.265855    1.054489
     33          1           0        6.760618    1.022547   -0.108920
     34          6           0        7.132126   -0.982252   -0.946370
     35          1           0        7.986109   -0.487140   -1.419447
     36          1           0        7.539569   -1.843315   -0.405015
     37          6           0        6.091016   -1.457179   -2.008108
     38          1           0        5.581261   -2.321751   -1.561705
     39          6           0        5.475404    0.949896   -2.735617
     40          1           0        4.873599    1.823206   -2.471777
     41          1           0        6.516349    1.199778   -2.515715
     42          1           0        5.389477    0.817911   -3.817900
     43          6           0        6.754322   -2.013510   -3.301595
     44          1           0        7.480288   -2.750336   -2.919794
     45          6           0        7.572749   -1.015481   -4.145894
     46          1           0        6.932591   -0.371949   -4.756343
     47          1           0        8.225898   -1.565452   -4.832878
     48          1           0        8.212474   -0.369490   -3.537815
     49          6           0        1.515123    2.969750   -0.994356
     50          1           0        1.289066    2.799128   -2.051584
     51          1           0        0.822142    3.735565   -0.636387
     52          1           0        2.522732    3.389453   -0.919974
     53          8           0        4.992139    1.969850    1.847194
     54          8           0        5.169129    1.925707    3.295300
     55          1           0        6.029995    1.479132    3.350204
     56          8           0       -2.117859    2.657802    2.289838
     57          1           0       -2.187995    3.541099    1.901181
     58          6           0        5.802755   -2.801807   -4.234984
     59          1           0        5.010549   -2.137477   -4.605562
     60          1           0        6.385615   -3.087089   -5.120424
     61          6           0        5.170232   -4.067487   -3.635987
     62          1           0        5.966532   -4.728201   -3.266614
     63          1           0        4.571008   -3.803400   -2.756826
     64          6           0        4.253536   -4.839191   -4.604460
     65          1           0        3.440256   -4.170306   -4.921476
     66          1           0        3.771639   -5.658325   -4.050283
     67          6           0        4.910353   -5.438211   -5.866644
     68          1           0        5.371768   -4.620756   -6.438794
     69          6           0        6.010532   -6.456813   -5.528815
     70          1           0        5.604674   -7.285351   -4.933732
     71          1           0        6.441445   -6.884036   -6.441417
     72          1           0        6.829481   -6.007152   -4.958033
     73          6           0        3.840331   -6.079081   -6.765270
     74          1           0        3.344686   -6.912184   -6.250349
     75          1           0        4.280025   -6.473998   -7.688229
     76          1           0        3.067231   -5.354288   -7.045378
 ---------------------------------------------------------------------

 SCF Done:  E(RHF) =  -1273.67674526     A.U. after    9 cycles

 Alpha  occ. eigenvalues --  -20.62436 -20.62315 -20.55617 -11.28605 -11.27719
 Alpha  occ. eigenvalues --  -11.24678 -11.23644 -11.23398 -11.23133 -11.23084
 Alpha  occ. eigenvalues --  -11.22812 -11.22727 -11.22583 -11.22510 -11.22322
 Alpha  occ. eigenvalues --  -11.22295 -11.22272 -11.22133 -11.21927 -11.21888
 Alpha  occ. eigenvalues --  -11.21867 -11.21784 -11.21728 -11.21621 -11.21547
 Alpha  occ. eigenvalues --  -11.21486 -11.21194 -11.21188 -11.21100 -11.21080
 Alpha  occ. eigenvalues --   -1.45731  -1.34981  -1.22362  -1.15870  -1.13919
 Alpha  occ. eigenvalues --   -1.09799  -1.08158  -1.05916  -1.05497  -1.03188
 Alpha  occ. eigenvalues --   -1.01633  -0.99856  -0.97983  -0.96315  -0.92766
 Alpha  occ. eigenvalues --   -0.92619  -0.92514  -0.91542  -0.90617  -0.85867
 Alpha  occ. eigenvalues --   -0.83768  -0.82936  -0.82784  -0.79891  -0.78395
 Alpha  occ. eigenvalues --   -0.77074  -0.75191  -0.74597  -0.72142  -0.70649
 Alpha  occ. eigenvalues --   -0.67901  -0.66619  -0.65661  -0.65178  -0.64994
 Alpha  occ. eigenvalues --   -0.63498  -0.63323  -0.62937  -0.62177  -0.61572
 Alpha  occ. eigenvalues --   -0.60875  -0.60043  -0.59940  -0.59327  -0.58394
 Alpha  occ. eigenvalues --   -0.57998  -0.57633  -0.56719  -0.55957  -0.55781
 Alpha  occ. eigenvalues --   -0.55498  -0.54974  -0.54272  -0.53949  -0.53854
 Alpha  occ. eigenvalues --   -0.53638  -0.53246  -0.53083  -0.52801  -0.52205
 Alpha  occ. eigenvalues --   -0.51316  -0.50657  -0.50159  -0.49493  -0.49105
 Alpha  occ. eigenvalues --   -0.48618  -0.48407  -0.48005  -0.47624  -0.47285
 Alpha  occ. eigenvalues --   -0.46744  -0.46207  -0.45423  -0.45253  -0.45052
 Alpha  occ. eigenvalues --   -0.44825  -0.44686  -0.44443  -0.43862  -0.42841
 Alpha  occ. eigenvalues --   -0.42410  -0.42257  -0.41910  -0.40666  -0.39000
 Alpha  occ. eigenvalues --   -0.33838
 Alpha virt. eigenvalues --    0.17003   0.19949   0.20758   0.21382   0.22267
 Alpha virt. eigenvalues --    0.22435   0.22880   0.23790   0.24367   0.24881
 Alpha virt. eigenvalues --    0.24973   0.25563   0.26227   0.27022   0.27218

 Mulliken atomic charges:
              1
     1  C    0.193723
     2  H    0.172319
     3  C   -0.366738
     4  H    0.195172
     5  H    0.154590
     6  C    0.069064
     7  C   -0.041042
     8  C   -0.326250
     9  H    0.164407
    10  H    0.171713
    11  C   -0.339475
    12  H    0.144679
    13  H    0.182389
    14  C   -0.250277
    15  H    0.212863
    16  C    0.191174
    17  H    0.166179
    18  C   -0.190407
    19  H    0.191832
    20  C   -0.164846
    21  H    0.158437
    22  C   -0.328737
    23  H    0.167113
    24  H    0.168847
    25  C   -0.301982
    26  H    0.153907
    27  H    0.163417
    28  C   -0.024282
    29  C   -0.166482
    30  H    0.150860
    31  C   -0.301648
    32  H    0.150963
    33  H    0.175522
    34  C   -0.331109
    35  H    0.162044
    36  H    0.162735
    37  C   -0.155235
    38  H    0.159993
    39  C   -0.485795
    40  H    0.163558
    41  H    0.168486
    42  H    0.161938
    43  C   -0.140526
    44  H    0.151963
    45  C   -0.482963
    46  H    0.157221
    47  H    0.158727
    48  H    0.161058
    49  C   -0.478000
    50  H    0.163895
    51  H    0.163524
    52  H    0.174105
    53  O   -0.394917
    54  O   -0.469426
    55  H    0.460534
    56  O   -0.759717
    57  H    0.428152
    58  C   -0.306804
    59  H    0.152685
    60  H    0.158479
    61  C   -0.317164
    62  H    0.154229
    63  H    0.160233
    64  C   -0.297344
    65  H    0.151206
    66  H    0.151132
    67  C   -0.152913
    68  H    0.156457
    69  C   -0.476459
    70  H    0.152357
    71  H    0.158858
    72  H    0.160900
    73  C   -0.471777
    74  H    0.152527
    75  H    0.158648
    76  H    0.157501
 Sum of Mulliken atomic charges =   0.00000

 Dipole moment (field-independent basis, Debye):
    X=              1.0848    Y=             -1.1801    Z=             -2.1734  Tot=              2.7006
 Quadrupole moment (field-independent basis, Debye-Ang):
   XX=           -189.9783   YY=           -192.0746   ZZ=           -196.4847
   XY=             -9.7664   XZ=              4.4186   YZ=             -8.4841

 Normal termination of Gaussian 09 at Fri Apr 28 13:02:05 2017.
