 Gaussian 09, Revision C.01,
 Gaussian 09:  EM64L-G09RevC.01 23-Sep-2011

 ----------------------------------------------------------------------
 #P HF/6-31G* SCF(Conver=6) NoSymm Test Pop=chelpg IOp(6/33=2) GFInput
 GFPrint
 ----------------------------------------------------------------------

 (Enter /scratch/michal/g09/l101.exe)
 ----------------------------------------------
 MEP - Input generated by R.E.D.-III.x MOLECULE
 ----------------------------------------------
 Charge =  0 Multiplicity = 1

                          Input orientation:
 ---------------------------------------------------------------------
 Center     Atomic      Atomic             Coordinates (Angstroms)
 Number     Number       Type             X           Y           Z
 ---------------------------------------------------------------------
      1          6           0        1.758548   -1.249065   -0.057745
      2          1           0        1.871477   -1.138546   -1.143183
      3          6           0        3.150859   -1.303489    0.587016
      4          1           0        3.727785   -2.127064    0.154600
      5          1           0        3.013062   -1.539981    1.654682
      6          6           0        3.914048    0.000486    0.453847
      7          6           0        3.190351    1.286763    0.867726
      8          6           0        1.748344    1.256748    0.271413
      9          1           0        1.819227    1.437511   -0.810204
     10          1           0        1.166106    2.085892    0.686493
     11          6           0        0.978710   -0.054858    0.490058
     12          1           0        0.785987   -0.214037    1.561469
     13          1           0        0.000000    0.000000    0.000000
     14          6           0        5.174662    0.000000    0.000000
     15          1           0        5.634812   -0.939545   -0.307898
     16          6           0        6.058855    1.206109   -0.120007
     17          1           0        6.285778    1.389203   -1.183002
     18          6           0        5.483702    2.481060    0.515384
     19          1           0        5.690924    2.416655    1.588820
     20          6           0        3.946440    2.532107    0.284872
     21          1           0        3.802563    2.478228   -0.807181
     22          6           0        3.344736    3.881616    0.742525
     23          1           0        3.356599    3.942129    1.836037
     24          1           0        2.290838    3.931393    0.447939
     25          6           0        4.068944    5.114809    0.168665
     26          1           0        3.930611    5.140447   -0.921412
     27          1           0        3.593744    6.019111    0.566888
     28          6           0        5.576095    5.089469    0.482212
     29          6           0        6.136012    3.744935   -0.072227
     30          1           0        5.869864    3.742389   -1.143605
     31          6           0        7.665718    3.918562    0.000000
     32          1           0        8.190772    3.275878   -0.711217
     33          1           0        8.038432    3.643748    0.991975
     34          6           0        7.882303    5.431045   -0.288503
     35          1           0        8.502230    5.888329    0.489556
     36          1           0        8.409844    5.595773   -1.234704
     37          6           0        6.465774    6.085074   -0.340461
     38          1           0        6.116523    5.965374   -1.375578
     39          6           0        5.803951    5.218015    2.006709
     40          1           0        5.448369    4.339305    2.550502
     41          1           0        6.859941    5.342504    2.257967
     42          1           0        5.265069    6.081877    2.406402
     43          6           0        6.499921    7.623599   -0.110225
     44          1           0        7.275815    7.969127   -0.810802
     45          6           0        6.955477    8.109587    1.280689
     46          1           0        6.164617    8.013035    2.030348
     47          1           0        7.222852    9.171266    1.229133
     48          1           0        7.833402    7.571582    1.649640
     49          6           0        3.114597    1.331527    2.417209
     50          1           0        2.482600    2.156301    2.760603
     51          1           0        2.689837    0.409801    2.824136
     52          1           0        4.108612    1.450788    2.857729
     53          8           0        7.395119    0.899533    0.352414
     54          8           0        7.348240    0.647287    1.787958
     55          1           0        7.398302   -0.322464    1.807153
     56          8           0        1.054228   -2.483993    0.096447
     57          1           0        0.891159   -2.632449    1.038558
     58          6           0        5.196375    8.365084   -0.495426
     59          1           0        4.387762    8.043121    0.173059
     60          1           0        5.347179    9.430158   -0.272743
     61          6           0        4.708535    8.232636   -1.951483
     62          1           0        4.437555    7.190660   -2.159281
     63          1           0        3.772540    8.798197   -2.045668
     64          6           0        5.695355    8.695167   -3.040791
     65          1           0        5.226699    8.528012   -4.022023
     66          1           0        6.583751    8.049537   -3.023194
     67          6           0        6.161601   10.164935   -2.974191
     68          1           0        6.644492   10.329738   -2.000080
     69          6           0        7.214381   10.437486   -4.060663
     70          1           0        6.788462   10.294926   -5.062217
     71          1           0        7.589614   11.465628   -4.002897
     72          1           0        8.071960    9.761581   -3.965037
     73          6           0        4.994228   11.157592   -3.094047
     74          1           0        4.461384   11.018389   -4.043800
     75          1           0        5.355646   12.191833   -3.065298
     76          1           0        4.267108   11.040658   -2.284014
 ---------------------------------------------------------------------

 SCF Done:  E(RHF) =  -1273.67574904     A.U. after    9 cycles

 Alpha  occ. eigenvalues --  -20.62452 -20.62316 -20.56058 -11.28779 -11.28193
 Alpha  occ. eigenvalues --  -11.24941 -11.24426 -11.23283 -11.23161 -11.22968
 Alpha  occ. eigenvalues --  -11.22680 -11.22669 -11.22669 -11.22405 -11.22348
 Alpha  occ. eigenvalues --  -11.22337 -11.22051 -11.21970 -11.21825 -11.21665
 Alpha  occ. eigenvalues --  -11.21617 -11.21525 -11.21446 -11.21360 -11.21014
 Alpha  occ. eigenvalues --  -11.21009 -11.20854 -11.20722 -11.20633 -11.20440
 Alpha  occ. eigenvalues --   -1.45709  -1.35434  -1.22146  -1.15868  -1.13858
 Alpha  occ. eigenvalues --   -1.09646  -1.07986  -1.05897  -1.05587  -1.03085
 Alpha  occ. eigenvalues --   -1.01617  -0.99538  -0.97849  -0.96367  -0.92515
 Alpha  occ. eigenvalues --   -0.92362  -0.92331  -0.91422  -0.90446  -0.86048
 Alpha  occ. eigenvalues --   -0.84024  -0.83006  -0.82777  -0.79314  -0.78553
 Alpha  occ. eigenvalues --   -0.76985  -0.75001  -0.73868  -0.71457  -0.69396
 Alpha  occ. eigenvalues --   -0.69089  -0.67141  -0.65685  -0.65066  -0.64735
 Alpha  occ. eigenvalues --   -0.63782  -0.63486  -0.62817  -0.62266  -0.61360
 Alpha  occ. eigenvalues --   -0.61014  -0.60087  -0.59444  -0.58996  -0.57982
 Alpha  occ. eigenvalues --   -0.57886  -0.57619  -0.56733  -0.55987  -0.55868
 Alpha  occ. eigenvalues --   -0.55471  -0.55009  -0.54291  -0.54060  -0.53756
 Alpha  occ. eigenvalues --   -0.53154  -0.52857  -0.52791  -0.52118  -0.51836
 Alpha  occ. eigenvalues --   -0.50992  -0.50683  -0.50436  -0.50015  -0.49187
 Alpha  occ. eigenvalues --   -0.48385  -0.48271  -0.47667  -0.47102  -0.46994
 Alpha  occ. eigenvalues --   -0.46698  -0.46259  -0.46058  -0.45256  -0.45012
 Alpha  occ. eigenvalues --   -0.44461  -0.44236  -0.44117  -0.43218  -0.42711
 Alpha  occ. eigenvalues --   -0.42556  -0.41895  -0.41643  -0.40364  -0.38612
 Alpha  occ. eigenvalues --   -0.34432
 Alpha virt. eigenvalues --    0.16128   0.19876   0.20915   0.21500   0.22277
 Alpha virt. eigenvalues --    0.22682   0.23084   0.23749   0.24454   0.25268
 Alpha virt. eigenvalues --    0.25671   0.25718   0.26184   0.26644   0.27073

 Mulliken atomic charges:
              1
     1  C    0.193922
     2  H    0.173810
     3  C   -0.368306
     4  H    0.191942
     5  H    0.155458
     6  C    0.083390
     7  C   -0.042269
     8  C   -0.327374
     9  H    0.165794
    10  H    0.174439
    11  C   -0.341342
    12  H    0.145024
    13  H    0.184033
    14  C   -0.279470
    15  H    0.185797
    16  C    0.192029
    17  H    0.186504
    18  C   -0.183870
    19  H    0.209060
    20  C   -0.168201
    21  H    0.156357
    22  C   -0.327768
    23  H    0.166580
    24  H    0.166989
    25  C   -0.301873
    26  H    0.153299
    27  H    0.162869
    28  C   -0.022913
    29  C   -0.171313
    30  H    0.146776
    31  C   -0.305767
    32  H    0.173265
    33  H    0.178408
    34  C   -0.332043
    35  H    0.160650
    36  H    0.161072
    37  C   -0.154559
    38  H    0.158242
    39  C   -0.485901
    40  H    0.162944
    41  H    0.170595
    42  H    0.159416
    43  C   -0.146858
    44  H    0.156924
    45  C   -0.481384
    46  H    0.155999
    47  H    0.156837
    48  H    0.162066
    49  C   -0.480525
    50  H    0.165908
    51  H    0.160029
    52  H    0.180157
    53  O   -0.393401
    54  O   -0.470526
    55  H    0.458974
    56  O   -0.759071
    57  H    0.428518
    58  C   -0.309138
    59  H    0.155567
    60  H    0.156049
    61  C   -0.319917
    62  H    0.160532
    63  H    0.158398
    64  C   -0.303433
    65  H    0.150797
    66  H    0.155783
    67  C   -0.152044
    68  H    0.155933
    69  C   -0.471621
    70  H    0.152355
    71  H    0.158207
    72  H    0.157671
    73  C   -0.476843
    74  H    0.151947
    75  H    0.158381
    76  H    0.162031
 Sum of Mulliken atomic charges =   0.00000

 Dipole moment (field-independent basis, Debye):
    X=             -1.4467    Y=              0.0726    Z=              1.0400  Tot=              1.7833
 Quadrupole moment (field-independent basis, Debye-Ang):
   XX=           -213.3508   YY=           -194.2164   ZZ=           -189.1402
   XY=            -10.0828   XZ=             -2.5110   YZ=             -6.2446

 Normal termination of Gaussian 09 at Fri Apr 28 13:16:15 2017.
