 Gaussian 09, Revision C.01,
 Gaussian 09:  EM64L-G09RevC.01 23-Sep-2011

 ----------------------------------------------------------------------
 #P HF/6-31G* SCF(Conver=6) NoSymm Test Pop=chelpg IOp(6/33=2) GFInput
 GFPrint
 ----------------------------------------------------------------------

 (Enter /scratch/michal/g09/l101.exe)
 ----------------------------------------------
 MEP - Input generated by R.E.D.-III.x MOLECULE
 ----------------------------------------------
 Charge =  0 Multiplicity = 1

                          Input orientation:
 ---------------------------------------------------------------------
 Center     Atomic      Atomic             Coordinates (Angstroms)
 Number     Number       Type             X           Y           Z
 ---------------------------------------------------------------------
      1          6           0       -1.010965    1.983423    1.683847
      2          1           0       -0.992189    1.006214    2.181799
      3          6           0        0.316136    2.706673    1.951716
      4          1           0        0.475292    2.804255    3.029921
      5          1           0        0.224635    3.730031    1.552348
      6          6           0        1.502805    2.014824    1.307431
      7          6           0        1.385923    1.662377   -0.178771
      8          6           0       -0.011357    1.012959   -0.425989
      9          1           0        0.000000    0.000000    0.000000
     10          1           0       -0.174771    0.895142   -1.502473
     11          6           0       -1.198347    1.776670    0.181137
     12          1           0       -1.313490    2.757508   -0.303542
     13          1           0       -2.128806    1.226633    0.000000
     14          6           0        2.599705    1.751085    2.029571
     15          1           0        2.627335    2.014214    3.084621
     16          6           0        3.863960    1.141633    1.499465
     17          1           0        4.045264    0.167702    1.980142
     18          6           0        3.905919    0.991716   -0.030185
     19          1           0        4.208520    1.965968   -0.436146
     20          6           0        2.493717    0.623597   -0.565540
     21          1           0        2.213578   -0.311077   -0.052873
     22          6           0        2.536983    0.308334   -2.078042
     23          1           0        2.711858    1.230739   -2.642394
     24          1           0        1.558917   -0.063102   -2.402456
     25          6           0        3.605677   -0.727015   -2.477946
     26          1           0        3.353628   -1.701267   -2.034611
     27          1           0        3.568190   -0.861323   -3.563314
     28          6           0        5.013560   -0.317471   -2.000235
     29          6           0        4.912328   -0.090590   -0.463600
     30          1           0        4.516761   -1.038847   -0.060623
     31          6           0        6.374426    0.000000    0.000000
     32          1           0        6.489863   -0.248881    1.059482
     33          1           0        6.758745    1.017388   -0.124044
     34          6           0        7.115912   -1.004811   -0.922112
     35          1           0        8.005459   -0.541684   -1.365711
     36          1           0        7.470007   -1.872853   -0.357963
     37          6           0        6.110576   -1.438629   -2.042231
     38          1           0        5.611622   -2.363483   -1.711172
     39          6           0        5.503256    0.942853   -2.749803
     40          1           0        4.858762    1.808150   -2.575557
     41          1           0        6.515356    1.230187   -2.449778
     42          1           0        5.521523    0.766902   -3.830215
     43          6           0        6.819302   -1.770579   -3.381697
     44          1           0        7.379799   -0.876285   -3.694425
     45          6           0        5.842972   -2.139520   -4.512735
     46          1           0        5.195513   -2.973891   -4.214738
     47          1           0        6.380289   -2.444256   -5.415594
     48          1           0        5.199938   -1.302718   -4.793990
     49          6           0        1.507645    2.968882   -1.007927
     50          1           0        1.277677    2.794585   -2.063717
     51          1           0        0.815446    3.735460   -0.650020
     52          1           0        2.515263    3.389460   -0.938759
     53          8           0        4.992336    1.993354    1.822582
     54          8           0        5.176504    1.959390    3.270055
     55          1           0        6.039641    1.517087    3.323751
     56          8           0       -2.117791    2.660819    2.285573
     57          1           0       -2.190626    3.542772    1.894381
     58          6           0        7.852365   -2.906107   -3.172581
     59          1           0        8.453369   -2.690569   -2.281920
     60          1           0        7.310936   -3.839667   -2.954427
     61          6           0        8.822041   -3.142463   -4.342548
     62          1           0        8.267676   -3.443781   -5.238446
     63          1           0        9.316271   -2.192596   -4.588127
     64          6           0        9.877913   -4.210336   -4.012588
     65          1           0        9.360955   -5.140806   -3.736217
     66          1           0       10.429965   -3.893737   -3.115798
     67          6           0       10.903537   -4.537308   -5.123042
     68          1           0       11.568562   -5.305526   -4.701316
     69          6           0       10.249750   -5.145887   -6.374840
     70          1           0        9.615231   -4.418679   -6.894493
     71          1           0       11.011330   -5.481911   -7.087777
     72          1           0        9.626899   -6.011237   -6.119245
     73          6           0       11.783765   -3.331185   -5.490445
     74          1           0       11.202931   -2.540315   -5.978938
     75          1           0       12.580077   -3.626384   -6.183233
     76          1           0       12.257968   -2.897737   -4.601968
 ---------------------------------------------------------------------

 SCF Done:  E(RHF) =  -1273.68320167     A.U. after    9 cycles

 Alpha  occ. eigenvalues --  -20.62423 -20.62302 -20.55602 -11.28585 -11.27703
 Alpha  occ. eigenvalues --  -11.24643 -11.23625 -11.23327 -11.23113 -11.23054
 Alpha  occ. eigenvalues --  -11.22700 -11.22633 -11.22586 -11.22494 -11.22340
 Alpha  occ. eigenvalues --  -11.22303 -11.22237 -11.22069 -11.21865 -11.21847
 Alpha  occ. eigenvalues --  -11.21797 -11.21655 -11.21591 -11.21583 -11.21527
 Alpha  occ. eigenvalues --  -11.21426 -11.21218 -11.21134 -11.21120 -11.21061
 Alpha  occ. eigenvalues --   -1.45716  -1.34965  -1.22346  -1.15858  -1.13928
 Alpha  occ. eigenvalues --   -1.09774  -1.08155  -1.05956  -1.05467  -1.03178
 Alpha  occ. eigenvalues --   -1.01646  -0.99618  -0.98017  -0.96227  -0.93147
 Alpha  occ. eigenvalues --   -0.92491  -0.92145  -0.91101  -0.90798  -0.85846
 Alpha  occ. eigenvalues --   -0.84453  -0.82988  -0.82690  -0.79182  -0.78209
 Alpha  occ. eigenvalues --   -0.77008  -0.74924  -0.74444  -0.72421  -0.70839
 Alpha  occ. eigenvalues --   -0.67854  -0.66602  -0.66057  -0.65149  -0.64605
 Alpha  occ. eigenvalues --   -0.63981  -0.63249  -0.62555  -0.62394  -0.61542
 Alpha  occ. eigenvalues --   -0.60850  -0.60336  -0.59704  -0.59234  -0.58620
 Alpha  occ. eigenvalues --   -0.58104  -0.57783  -0.56727  -0.55975  -0.55776
 Alpha  occ. eigenvalues --   -0.55515  -0.55051  -0.54657  -0.53844  -0.53657
 Alpha  occ. eigenvalues --   -0.53501  -0.53048  -0.52607  -0.52329  -0.51701
 Alpha  occ. eigenvalues --   -0.51089  -0.50909  -0.50668  -0.49506  -0.48697
 Alpha  occ. eigenvalues --   -0.48475  -0.48202  -0.47942  -0.47483  -0.47024
 Alpha  occ. eigenvalues --   -0.46472  -0.46088  -0.45782  -0.45188  -0.45025
 Alpha  occ. eigenvalues --   -0.44908  -0.44694  -0.44207  -0.43839  -0.43708
 Alpha  occ. eigenvalues --   -0.42709  -0.42314  -0.41766  -0.40697  -0.38907
 Alpha  occ. eigenvalues --   -0.33820
 Alpha virt. eigenvalues --    0.17024   0.20503   0.21053   0.21599   0.21872
 Alpha virt. eigenvalues --    0.22677   0.22907   0.24179   0.24819   0.25106
 Alpha virt. eigenvalues --    0.25397   0.25999   0.26112   0.26512   0.27027

 Mulliken atomic charges:
              1
     1  C    0.193727
     2  H    0.172292
     3  C   -0.366700
     4  H    0.195104
     5  H    0.154567
     6  C    0.069064
     7  C   -0.040951
     8  C   -0.326195
     9  H    0.164426
    10  H    0.171763
    11  C   -0.339485
    12  H    0.144629
    13  H    0.182336
    14  C   -0.249955
    15  H    0.212660
    16  C    0.189857
    17  H    0.166338
    18  C   -0.189439
    19  H    0.191587
    20  C   -0.164846
    21  H    0.158654
    22  C   -0.328744
    23  H    0.165624
    24  H    0.168772
    25  C   -0.298207
    26  H    0.152446
    27  H    0.166039
    28  C   -0.031505
    29  C   -0.163835
    30  H    0.151227
    31  C   -0.301823
    32  H    0.150958
    33  H    0.174936
    34  C   -0.339341
    35  H    0.161216
    36  H    0.166620
    37  C   -0.134876
    38  H    0.152475
    39  C   -0.488423
    40  H    0.164195
    41  H    0.167528
    42  H    0.163713
    43  C   -0.149409
    44  H    0.153324
    45  C   -0.485448
    46  H    0.153124
    47  H    0.164487
    48  H    0.161786
    49  C   -0.478171
    50  H    0.163840
    51  H    0.163464
    52  H    0.174164
    53  O   -0.394760
    54  O   -0.469528
    55  H    0.460482
    56  O   -0.759767
    57  H    0.428134
    58  C   -0.307664
    59  H    0.165468
    60  H    0.147731
    61  C   -0.314808
    62  H    0.159572
    63  H    0.154445
    64  C   -0.300871
    65  H    0.151676
    66  H    0.151131
    67  C   -0.146473
    68  H    0.155689
    69  C   -0.476391
    70  H    0.155376
    71  H    0.158861
    72  H    0.156927
    73  C   -0.476257
    74  H    0.156107
    75  H    0.158611
    76  H    0.156720
 Sum of Mulliken atomic charges =   0.00000

 Dipole moment (field-independent basis, Debye):
    X=              1.1685    Y=             -1.2252    Z=             -2.1538  Tot=              2.7396
 Quadrupole moment (field-independent basis, Debye-Ang):
   XX=           -188.4205   YY=           -191.1484   ZZ=           -196.9697
   XY=             -9.7540   XZ=              4.8458   YZ=             -8.2206

 Normal termination of Gaussian 09 at Fri Apr 28 12:17:42 2017.
