 Gaussian 09, Revision C.01,
 Gaussian 09:  EM64L-G09RevC.01 23-Sep-2011

 ----------------------------------------------------------------------
 #P HF/6-31G* SCF(Conver=6) NoSymm Test Pop=chelpg IOp(6/33=2) GFInput
 GFPrint
 ----------------------------------------------------------------------

 (Enter /scratch/michal/g09/l101.exe)
 ----------------------------------------------
 MEP - Input generated by R.E.D.-III.x MOLECULE
 ----------------------------------------------
 Charge =  0 Multiplicity = 1

                          Input orientation:
 ---------------------------------------------------------------------
 Center     Atomic      Atomic             Coordinates (Angstroms)
 Number     Number       Type             X           Y           Z
 ---------------------------------------------------------------------
      1          6           0        7.517115    2.216196    0.070504
      2          1           0        7.355274    2.186064    1.154961
      3          6           0        6.821710    1.008057   -0.572849
      4          1           0        7.204556    0.081955   -0.132516
      5          1           0        7.103285    0.991811   -1.638353
      6          6           0        5.310779    1.063025   -0.451688
      7          6           0        4.615579    2.361423   -0.875974
      8          6           0        5.409642    3.565883   -0.280794
      9          1           0        5.211930    3.608763    0.799331
     10          1           0        5.024047    4.499465   -0.703383
     11          6           0        6.930950    3.511596   -0.488717
     12          1           0        7.176262    3.583115   -1.558842
     13          1           0        7.405809    4.369919    0.000000
     14          6           0        4.631716    0.000000    0.000000
     15          1           0        5.175691   -0.891094    0.315170
     16          6           0        3.138527   -0.100214    0.107435
     17          1           0        2.854089   -0.196631    1.167945
     18          6           0        2.374260    1.069876   -0.530592
     19          1           0        2.316261    0.860025   -1.604179
     20          6           0        3.155989    2.393338   -0.301636
     21          1           0        3.272428    2.491301    0.790577
     22          6           0        2.339862    3.619001   -0.771333
     23          1           0        2.291763    3.634186   -1.865612
     24          1           0        2.857196    4.539297   -0.478763
     25          6           0        0.904434    3.671478   -0.212747
     26          1           0        0.941940    3.809090    0.877667
     27          1           0        0.408070    4.557721   -0.619931
     28          6           0        0.118307    2.381295   -0.520173
     29          6           0        0.956648    1.201760    0.053751
     30          1           0        1.095572    1.443890    1.122351
     31          6           0        0.000000    0.000000    0.000000
     32          1           0        0.273506   -0.785111    0.709538
     33          1           0        0.018872   -0.465156   -0.990863
     34          6           0       -1.387800    0.622930    0.309072
     35          1           0       -2.131079    0.302757   -0.430943
     36          1           0       -1.762520    0.293206    1.282876
     37          6           0       -1.219895    2.179836    0.273629
     38          1           0       -1.018050    2.523888    1.300889
     39          6           0       -0.131879    2.240215   -2.039312
     40          1           0        0.797344    2.166672   -2.609895
     41          1           0       -0.723837    1.351113   -2.274905
     42          1           0       -0.678774    3.107937   -2.422764
     43          6           0       -2.509051    2.906323   -0.193292
     44          1           0       -2.757244    2.524978   -1.193727
     45          6           0       -2.349798    4.433027   -0.292948
     46          1           0       -2.025687    4.858336    0.665467
     47          1           0       -3.294936    4.913405   -0.563659
     48          1           0       -1.618899    4.722935   -1.050841
     49          6           0        4.628245    2.441335   -2.425856
     50          1           0        4.272911    3.415161   -2.776616
     51          1           0        5.636805    2.304021   -2.825397
     52          1           0        3.997747    1.663578   -2.866303
     53          8           0        2.685580   -1.391836   -0.372096
     54          8           0        2.935106   -1.483408   -1.805962
     55          1           0        3.727226   -2.045209   -1.820279
     56          8           0        8.938302    2.148069   -0.072834
     57          1           0        9.157930    2.201290   -1.013646
     58          6           0       -3.681668    2.548506    0.756068
     59          1           0       -3.749834    1.458346    0.847477
     60          1           0       -3.432560    2.922473    1.760575
     61          6           0       -5.080501    3.072336    0.373051
     62          1           0       -5.768087    2.777735    1.175944
     63          1           0       -5.085475    4.168599    0.365365
     64          6           0       -5.604867    2.535092   -0.968882
     65          1           0       -5.513843    1.438836   -0.967292
     66          1           0       -4.956896    2.890602   -1.781186
     67          6           0       -7.064594    2.899633   -1.330320
     68          1           0       -7.251248    2.450525   -2.317109
     69          6           0       -8.089307    2.290308   -0.358946
     70          1           0       -8.015008    2.733366    0.640805
     71          1           0       -9.111722    2.460735   -0.715208
     72          1           0       -7.947511    1.207949   -0.256842
     73          6           0       -7.276897    4.415664   -1.477176
     74          1           0       -7.168827    4.933462   -0.517124
     75          1           0       -8.282474    4.633904   -1.854573
     76          1           0       -6.555576    4.853895   -2.177070
 ---------------------------------------------------------------------

 SCF Done:  E(RHF) =  -1273.68182675     A.U. after    9 cycles

 Alpha  occ. eigenvalues --  -20.62430 -20.62296 -20.56043 -11.28756 -11.28176
 Alpha  occ. eigenvalues --  -11.24903 -11.24404 -11.23207 -11.23144 -11.22941
 Alpha  occ. eigenvalues --  -11.22661 -11.22645 -11.22625 -11.22426 -11.22314
 Alpha  occ. eigenvalues --  -11.22100 -11.22027 -11.21912 -11.21821 -11.21619
 Alpha  occ. eigenvalues --  -11.21495 -11.21357 -11.21295 -11.21228 -11.20955
 Alpha  occ. eigenvalues --  -11.20903 -11.20861 -11.20758 -11.20734 -11.20350
 Alpha  occ. eigenvalues --   -1.45685  -1.35419  -1.22121  -1.15843  -1.13854
 Alpha  occ. eigenvalues --   -1.09552  -1.07989  -1.05880  -1.05637  -1.03038
 Alpha  occ. eigenvalues --   -1.01636  -0.99229  -0.97851  -0.96269  -0.92808
 Alpha  occ. eigenvalues --   -0.92292  -0.92141  -0.91051  -0.90437  -0.86025
 Alpha  occ. eigenvalues --   -0.84571  -0.82916  -0.82754  -0.78757  -0.78354
 Alpha  occ. eigenvalues --   -0.76900  -0.75131  -0.73091  -0.72053  -0.69399
 Alpha  occ. eigenvalues --   -0.69332  -0.67123  -0.65620  -0.65320  -0.64528
 Alpha  occ. eigenvalues --   -0.63932  -0.63223  -0.62822  -0.62538  -0.61165
 Alpha  occ. eigenvalues --   -0.60694  -0.60116  -0.59417  -0.59011  -0.58519
 Alpha  occ. eigenvalues --   -0.57866  -0.57552  -0.56422  -0.56009  -0.55684
 Alpha  occ. eigenvalues --   -0.55197  -0.54820  -0.54212  -0.54048  -0.53692
 Alpha  occ. eigenvalues --   -0.53228  -0.52983  -0.52675  -0.52103  -0.51858
 Alpha  occ. eigenvalues --   -0.51506  -0.50840  -0.50143  -0.49819  -0.48974
 Alpha  occ. eigenvalues --   -0.48301  -0.47964  -0.47442  -0.47051  -0.46961
 Alpha  occ. eigenvalues --   -0.46387  -0.46301  -0.45989  -0.45251  -0.44921
 Alpha  occ. eigenvalues --   -0.44769  -0.44198  -0.43475  -0.43258  -0.42771
 Alpha  occ. eigenvalues --   -0.42641  -0.42440  -0.41556  -0.40420  -0.38615
 Alpha  occ. eigenvalues --   -0.34412
 Alpha virt. eigenvalues --    0.16150   0.20711   0.21154   0.21541   0.22109
 Alpha virt. eigenvalues --    0.22946   0.23067   0.24372   0.25227   0.25361
 Alpha virt. eigenvalues --    0.25611   0.26207   0.26778   0.26905   0.27013

 Mulliken atomic charges:
              1
     1  C    0.193919
     2  H    0.173809
     3  C   -0.368261
     4  H    0.191908
     5  H    0.155406
     6  C    0.083424
     7  C   -0.042168
     8  C   -0.327356
     9  H    0.165830
    10  H    0.174433
    11  C   -0.341358
    12  H    0.144960
    13  H    0.183968
    14  C   -0.279283
    15  H    0.185715
    16  C    0.190488
    17  H    0.186705
    18  C   -0.182571
    19  H    0.208723
    20  C   -0.168218
    21  H    0.156559
    22  C   -0.327811
    23  H    0.164936
    24  H    0.166845
    25  C   -0.297723
    26  H    0.151597
    27  H    0.164849
    28  C   -0.030325
    29  C   -0.168935
    30  H    0.147118
    31  C   -0.306121
    32  H    0.173152
    33  H    0.177607
    34  C   -0.339367
    35  H    0.159832
    36  H    0.165675
    37  C   -0.134548
    38  H    0.150460
    39  C   -0.488172
    40  H    0.163134
    41  H    0.170106
    42  H    0.160651
    43  C   -0.155059
    44  H    0.158990
    45  C   -0.485192
    46  H    0.152119
    47  H    0.163253
    48  H    0.161103
    49  C   -0.480735
    50  H    0.165760
    51  H    0.159890
    52  H    0.180439
    53  O   -0.393252
    54  O   -0.470624
    55  H    0.458926
    56  O   -0.759112
    57  H    0.428490
    58  C   -0.308448
    59  H    0.165815
    60  H    0.149486
    61  C   -0.318551
    62  H    0.159754
    63  H    0.158178
    64  C   -0.305220
    65  H    0.150873
    66  H    0.155517
    67  C   -0.145694
    68  H    0.155196
    69  C   -0.476375
    70  H    0.155817
    71  H    0.158044
    72  H    0.157194
    73  C   -0.476992
    74  H    0.156401
    75  H    0.158374
    76  H    0.156044
 Sum of Mulliken atomic charges =   0.00000

 Dipole moment (field-independent basis, Debye):
    X=              0.6507    Y=              1.1745    Z=             -1.0871  Tot=              1.7276
 Quadrupole moment (field-independent basis, Debye-Ang):
   XX=           -198.5390   YY=           -188.2303   ZZ=           -187.9877
   XY=             -0.2863   XZ=            -14.2334   YZ=             -3.1896

 Normal termination of Gaussian 09 at Fri Apr 28 14:06:14 2017.
