 Gaussian 09, Revision C.01,
 Gaussian 09:  EM64L-G09RevC.01 23-Sep-2011

 ----------------------------------------------------------------------
 #P HF/6-31G* SCF(Conver=6) NoSymm Test Pop=chelpg IOp(6/33=2) GFInput
 GFPrint
 ----------------------------------------------------------------------

 (Enter /scratch/michal/g09/l101.exe)
 ----------------------------------------------
 MEP - Input generated by R.E.D.-III.x MOLECULE
 ----------------------------------------------
 Charge =  0 Multiplicity = 1

                          Input orientation:
 ---------------------------------------------------------------------
 Center     Atomic      Atomic             Coordinates (Angstroms)
 Number     Number       Type             X           Y           Z
 ---------------------------------------------------------------------
      1          6           0       -1.005199    1.976876    1.694381
      2          1           0       -0.992517    0.995996    2.185150
      3          6           0        0.324716    2.692086    1.971805
      4          1           0        0.478913    2.782216    3.051720
      5          1           0        0.238464    3.717791    1.577771
      6          6           0        1.511235    2.001716    1.326639
      7          6           0        1.400402    1.652600   -0.161756
      8          6           0       -0.001826    1.016577   -0.417280
      9          1           0        0.000000    0.000000    0.000000
     10          1           0       -0.160876    0.908566   -1.495138
     11          6           0       -1.186878    1.783132    0.189776
     12          1           0       -1.293300    2.768481   -0.287862
     13          1           0       -2.119751    1.240187    0.000000
     14          6           0        2.605975    1.728161    2.048996
     15          1           0        2.623577    1.972222    3.111730
     16          6           0        3.865725    1.106705    1.522006
     17          1           0        4.010115    0.119307    1.990151
     18          6           0        3.914580    0.968340   -0.007155
     19          1           0        4.214492    1.945432   -0.400739
     20          6           0        2.501798    0.602918   -0.545030
     21          1           0        2.213126   -0.327421   -0.028035
     22          6           0        2.534549    0.275842   -2.056499
     23          1           0        2.708187    1.192403   -2.630504
     24          1           0        1.554422   -0.098034   -2.372056
     25          6           0        3.601688   -0.764196   -2.448995
     26          1           0        3.348982   -1.734038   -1.996807
     27          1           0        3.570368   -0.908425   -3.535000
     28          6           0        5.006973   -0.344868   -1.979714
     29          6           0        4.924275   -0.108354   -0.441971
     30          1           0        4.540836   -1.056368   -0.025932
     31          6           0        6.396332    0.000000    0.000000
     32          1           0        6.532986   -0.245759    1.056216
     33          1           0        6.761961    1.024364   -0.124342
     34          6           0        7.140222   -0.986687   -0.943974
     35          1           0        7.993264   -0.494448   -1.421921
     36          1           0        7.549719   -1.844327   -0.398569
     37          6           0        6.097941   -1.469027   -2.000361
     38          1           0        5.593826   -2.343213   -1.560344
     39          6           0        5.464052    0.925152   -2.734399
     40          1           0        4.860982    1.798532   -2.473522
     41          1           0        6.505052    1.180576   -2.521734
     42          1           0        5.372925    0.783354   -3.815313
     43          6           0        6.745206   -2.027308   -3.301850
     44          1           0        7.449789   -2.787800   -2.926303
     45          6           0        7.588058   -1.044007   -4.139083
     46          1           0        6.963030   -0.382486   -4.746628
     47          1           0        8.242652   -1.591973   -4.824185
     48          1           0        8.232804   -0.415720   -3.517985
     49          6           0        1.538858    2.960980   -0.984920
     50          1           0        1.322435    2.789232   -2.043807
     51          1           0        0.843996    3.729438   -0.635171
     52          1           0        2.547662    3.375357   -0.900787
     53          8           0        5.026993    1.789333    2.059020
     54          8           0        5.067613    3.148959    1.533148
     55          1           0        4.741128    3.652432    2.296827
     56          8           0       -2.108737    2.656142    2.299159
     57          1           0       -2.199130    3.527573    1.888506
     58          6           0        5.730354   -2.784786   -4.188234
     59          1           0        5.064185   -3.372694   -3.541465
     60          1           0        5.088132   -2.062960   -4.711255
     61          6           0        6.357151   -3.732255   -5.224392
     62          1           0        6.974360   -3.158579   -5.925676
     63          1           0        7.036331   -4.422908   -4.706053
     64          6           0        5.296917   -4.527335   -6.003427
     65          1           0        4.610744   -3.816741   -6.486917
     66          1           0        4.686911   -5.095498   -5.286162
     67          6           0        5.817156   -5.507250   -7.080958
     68          1           0        4.923257   -5.978203   -7.516294
     69          6           0        6.553248   -4.793025   -8.226735
     70          1           0        7.494495   -4.346030   -7.886594
     71          1           0        6.798096   -5.496318   -9.030893
     72          1           0        5.939722   -3.993225   -8.658079
     73          6           0        6.678613   -6.635426   -6.489613
     74          1           0        7.624889   -6.254022   -6.088984
     75          1           0        6.924879   -7.380011   -7.255244
     76          1           0        6.155568   -7.152887   -5.676711
 ---------------------------------------------------------------------

 SCF Done:  E(RHF) =  -1273.67837210     A.U. after    9 cycles

 Alpha  occ. eigenvalues --  -20.62427 -20.62292 -20.56041 -11.28750 -11.28174
 Alpha  occ. eigenvalues --  -11.24910 -11.24400 -11.23237 -11.23140 -11.22940
 Alpha  occ. eigenvalues --  -11.22659 -11.22645 -11.22586 -11.22504 -11.22351
 Alpha  occ. eigenvalues --  -11.22314 -11.22027 -11.21912 -11.21841 -11.21622
 Alpha  occ. eigenvalues --  -11.21508 -11.21498 -11.21374 -11.21312 -11.21005
 Alpha  occ. eigenvalues --  -11.20991 -11.20812 -11.20671 -11.20632 -11.20417
 Alpha  occ. eigenvalues --   -1.45681  -1.35417  -1.22121  -1.15835  -1.13828
 Alpha  occ. eigenvalues --   -1.09527  -1.08033  -1.05892  -1.05708  -1.03038
 Alpha  occ. eigenvalues --   -1.01696  -0.99395  -0.97829  -0.96260  -0.92456
 Alpha  occ. eigenvalues --   -0.92361  -0.92272  -0.91522  -0.90264  -0.86018
 Alpha  occ. eigenvalues --   -0.84231  -0.83130  -0.82860  -0.78725  -0.78450
 Alpha  occ. eigenvalues --   -0.76594  -0.74786  -0.74198  -0.71667  -0.69375
 Alpha  occ. eigenvalues --   -0.69096  -0.67118  -0.65641  -0.65003  -0.64473
 Alpha  occ. eigenvalues --   -0.63912  -0.63602  -0.62801  -0.62327  -0.61362
 Alpha  occ. eigenvalues --   -0.61108  -0.60293  -0.59605  -0.58952  -0.58666
 Alpha  occ. eigenvalues --   -0.57886  -0.57449  -0.56189  -0.55888  -0.55843
 Alpha  occ. eigenvalues --   -0.55608  -0.55014  -0.54050  -0.53801  -0.53475
 Alpha  occ. eigenvalues --   -0.53352  -0.52751  -0.52194  -0.51909  -0.51798
 Alpha  occ. eigenvalues --   -0.51493  -0.50899  -0.50374  -0.49715  -0.48595
 Alpha  occ. eigenvalues --   -0.48365  -0.48192  -0.47445  -0.47039  -0.46916
 Alpha  occ. eigenvalues --   -0.46581  -0.46238  -0.45887  -0.45618  -0.45095
 Alpha  occ. eigenvalues --   -0.44869  -0.44523  -0.44119  -0.43267  -0.42802
 Alpha  occ. eigenvalues --   -0.42612  -0.42044  -0.41239  -0.40343  -0.38583
 Alpha  occ. eigenvalues --   -0.34407
 Alpha virt. eigenvalues --    0.16157   0.20556   0.21118   0.21583   0.22057
 Alpha virt. eigenvalues --    0.22700   0.22970   0.24167   0.24806   0.25412
 Alpha virt. eigenvalues --    0.25550   0.25910   0.26262   0.27156   0.27468

 Mulliken atomic charges:
              1
     1  C    0.193908
     2  H    0.173774
     3  C   -0.368276
     4  H    0.191870
     5  H    0.155401
     6  C    0.083306
     7  C   -0.042189
     8  C   -0.327287
     9  H    0.165788
    10  H    0.174406
    11  C   -0.341297
    12  H    0.144966
    13  H    0.183931
    14  C   -0.279389
    15  H    0.185692
    16  C    0.191802
    17  H    0.186501
    18  C   -0.183272
    19  H    0.208835
    20  C   -0.168078
    21  H    0.156324
    22  C   -0.328386
    23  H    0.166051
    24  H    0.166767
    25  C   -0.298374
    26  H    0.151299
    27  H    0.163615
    28  C   -0.024060
    29  C   -0.171237
    30  H    0.147082
    31  C   -0.305863
    32  H    0.173095
    33  H    0.178115
    34  C   -0.332120
    35  H    0.160973
    36  H    0.161938
    37  C   -0.153243
    38  H    0.151764
    39  C   -0.484857
    40  H    0.162665
    41  H    0.170461
    42  H    0.158884
    43  C   -0.135534
    44  H    0.152040
    45  C   -0.485708
    46  H    0.155514
    47  H    0.161727
    48  H    0.162620
    49  C   -0.480525
    50  H    0.165918
    51  H    0.159915
    52  H    0.180042
    53  O   -0.393448
    54  O   -0.470560
    55  H    0.458925
    56  O   -0.759101
    57  H    0.428493
    58  C   -0.303701
    59  H    0.152348
    60  H    0.150487
    61  C   -0.315242
    62  H    0.160633
    63  H    0.154472
    64  C   -0.300400
    65  H    0.150378
    66  H    0.150857
    67  C   -0.146226
    68  H    0.155019
    69  C   -0.476249
    70  H    0.156086
    71  H    0.158381
    72  H    0.156455
    73  C   -0.476170
    74  H    0.156534
    75  H    0.158173
    76  H    0.156561
 Sum of Mulliken atomic charges =   0.00000

 Dipole moment (field-independent basis, Debye):
    X=             -1.1768    Y=              0.6102    Z=             -1.1602  Tot=              1.7616
 Quadrupole moment (field-independent basis, Debye-Ang):
   XX=           -213.9297   YY=           -181.6073   ZZ=           -193.4922
   XY=             -4.0268   XZ=              4.1499   YZ=              0.5315

 Normal termination of Gaussian 09 at Fri Apr 28 13:24:31 2017.
