 Gaussian 09, Revision C.01,
 Gaussian 09:  EM64L-G09RevC.01 23-Sep-2011

 ----------------------------------------------------------------------
 #P HF/6-31G* SCF(Conver=6) NoSymm Test Pop=chelpg IOp(6/33=2) GFInput
 GFPrint
 ----------------------------------------------------------------------

 (Enter /scratch/michal/g09/l101.exe)
 ----------------------------------------------
 MEP - Input generated by R.E.D.-III.x MOLECULE
 ----------------------------------------------
 Charge =  0 Multiplicity = 1

                          Input orientation:
 ---------------------------------------------------------------------
 Center     Atomic      Atomic             Coordinates (Angstroms)
 Number     Number       Type             X           Y           Z
 ---------------------------------------------------------------------
      1          6           0        7.521342    2.214598    0.062597
      2          1           0        7.360137    2.181918    1.147113
      3          6           0        6.827067    1.007337   -0.582776
      4          1           0        7.208912    0.080492   -0.144015
      5          1           0        7.108392    0.991387   -1.648460
      6          6           0        5.315978    1.062552   -0.457486
      7          6           0        4.624575    2.359603   -0.889379
      8          6           0        5.412569    3.564879   -0.287837
      9          1           0        5.211780    3.602671    0.791949
     10          1           0        5.027904    4.500113   -0.708177
     11          6           0        6.934412    3.511987   -0.492581
     12          1           0        7.181525    3.587927   -1.561849
     13          1           0        7.407887    4.368892    0.000000
     14          6           0        4.640738    0.000000    0.000000
     15          1           0        5.181718   -0.893818    0.302547
     16          6           0        3.147588   -0.102399    0.103847
     17          1           0        2.847745   -0.209563    1.157921
     18          6           0        2.383236    1.062050   -0.547309
     19          1           0        2.327723    0.841520   -1.621209
     20          6           0        3.160785    2.391905   -0.330428
     21          1           0        3.264525    2.502159    0.761408
     22          6           0        2.343750    3.608881   -0.824756
     23          1           0        2.292780    3.601697   -1.918764
     24          1           0        2.864862    4.532906   -0.552227
     25          6           0        0.911597    3.672804   -0.260295
     26          1           0        0.958225    3.831390    0.826228
     27          1           0        0.403919    4.547433   -0.683674
     28          6           0        0.126620    2.378848   -0.544669
     29          6           0        0.964934    1.200648    0.036329
     30          1           0        1.112523    1.450391    1.100592
     31          6           0        0.000000    0.000000    0.000000
     32          1           0        0.262769   -0.761875    0.740476
     33          1           0        0.030780   -0.492215   -0.977188
     34          6           0       -1.394153    0.631719    0.273947
     35          1           0       -2.111469    0.331834   -0.496725
     36          1           0       -1.814914    0.298495    1.229158
     37          6           0       -1.189258    2.179097    0.285226
     38          1           0       -0.900232    2.436657    1.313759
     39          6           0       -0.105825    2.220783   -2.065397
     40          1           0        0.827698    2.049999   -2.607493
     41          1           0       -0.769151    1.384131   -2.298416
     42          1           0       -0.556792    3.125346   -2.483077
     43          6           0       -2.508738    2.965355    0.036915
     44          1           0       -3.212666    2.517519    0.754988
     45          6           0       -3.169365    2.798731   -1.346612
     46          1           0       -2.669605    3.393725   -2.116657
     47          1           0       -4.209471    3.140794   -1.299485
     48          1           0       -3.185192    1.758879   -1.685694
     49          6           0        4.650124    2.441822   -2.439181
     50          1           0        4.305465    3.418616   -2.792747
     51          1           0        5.660187    2.295780   -2.830785
     52          1           0        4.018000    1.669517   -2.887367
     53          8           0        2.687022   -1.287672   -0.593147
     54          8           0        3.163085   -2.452679    0.146029
     55          1           0        2.317380   -2.821378    0.449968
     56          8           0        8.943062    2.151282   -0.081271
     57          1           0        9.159727    2.169090   -1.024100
     58          6           0       -2.434943    4.474721    0.375031
     59          1           0       -1.737646    4.964082   -0.316818
     60          1           0       -3.421171    4.908493    0.154964
     61          6           0       -2.060933    4.862439    1.818093
     62          1           0       -1.050175    4.510469    2.052472
     63          1           0       -2.013274    5.959700    1.867609
     64          6           0       -3.051502    4.369010    2.884721
     65          1           0       -3.021424    3.271772    2.950391
     66          1           0       -4.070411    4.625626    2.559492
     67          6           0       -2.831966    4.948177    4.297491
     68          1           0       -2.840694    6.045838    4.210695
     69          6           0       -3.982935    4.543508    5.232082
     70          1           0       -4.022058    3.453440    5.354704
     71          1           0       -3.860934    4.984647    6.227893
     72          1           0       -4.952234    4.868794    4.837155
     73          6           0       -1.479429    4.534786    4.900180
     74          1           0       -1.408416    3.442169    4.981880
     75          1           0       -1.356028    4.950364    5.906728
     76          1           0       -0.635117    4.880749    4.295524
 ---------------------------------------------------------------------

 SCF Done:  E(RHF) =  -1273.67704435     A.U. after    9 cycles

 Alpha  occ. eigenvalues --  -20.62433 -20.62311 -20.55612 -11.28600 -11.27715
 Alpha  occ. eigenvalues --  -11.24671 -11.23640 -11.23391 -11.23134 -11.23079
 Alpha  occ. eigenvalues --  -11.22720 -11.22709 -11.22682 -11.22506 -11.22317
 Alpha  occ. eigenvalues --  -11.22311 -11.22267 -11.22123 -11.21910 -11.21882
 Alpha  occ. eigenvalues --  -11.21863 -11.21777 -11.21713 -11.21677 -11.21554
 Alpha  occ. eigenvalues --  -11.21487 -11.21283 -11.21233 -11.21085 -11.21045
 Alpha  occ. eigenvalues --   -1.45726  -1.34976  -1.22358  -1.15866  -1.13917
 Alpha  occ. eigenvalues --   -1.09830  -1.08151  -1.05962  -1.05492  -1.03182
 Alpha  occ. eigenvalues --   -1.01654  -0.99801  -0.97973  -0.96308  -0.92784
 Alpha  occ. eigenvalues --   -0.92616  -0.92514  -0.91507  -0.90693  -0.85862
 Alpha  occ. eigenvalues --   -0.84075  -0.82930  -0.82768  -0.79136  -0.78392
 Alpha  occ. eigenvalues --   -0.77015  -0.76171  -0.74389  -0.71981  -0.70541
 Alpha  occ. eigenvalues --   -0.67899  -0.66614  -0.65617  -0.65188  -0.64864
 Alpha  occ. eigenvalues --   -0.64122  -0.63502  -0.62662  -0.61741  -0.61332
 Alpha  occ. eigenvalues --   -0.60688  -0.60062  -0.60010  -0.59354  -0.58937
 Alpha  occ. eigenvalues --   -0.57794  -0.57241  -0.57151  -0.56048  -0.55778
 Alpha  occ. eigenvalues --   -0.55745  -0.55249  -0.54574  -0.53967  -0.53903
 Alpha  occ. eigenvalues --   -0.53421  -0.53312  -0.52821  -0.52358  -0.51882
 Alpha  occ. eigenvalues --   -0.51459  -0.50573  -0.50298  -0.49473  -0.49119
 Alpha  occ. eigenvalues --   -0.48634  -0.48343  -0.48174  -0.47671  -0.47021
 Alpha  occ. eigenvalues --   -0.46923  -0.46210  -0.45487  -0.45376  -0.45192
 Alpha  occ. eigenvalues --   -0.44970  -0.44700  -0.43893  -0.43712  -0.42993
 Alpha  occ. eigenvalues --   -0.42534  -0.42286  -0.41964  -0.40666  -0.38967
 Alpha  occ. eigenvalues --   -0.33834
 Alpha virt. eigenvalues --    0.17008   0.19854   0.20808   0.21369   0.22143
 Alpha virt. eigenvalues --    0.22467   0.23095   0.23548   0.24427   0.24870
 Alpha virt. eigenvalues --    0.24915   0.25599   0.26130   0.26601   0.27176

 Mulliken atomic charges:
              1
     1  C    0.193714
     2  H    0.172334
     3  C   -0.366714
     4  H    0.195164
     5  H    0.154594
     6  C    0.069087
     7  C   -0.041060
     8  C   -0.326256
     9  H    0.164403
    10  H    0.171725
    11  C   -0.339489
    12  H    0.144674
    13  H    0.182377
    14  C   -0.250276
    15  H    0.212840
    16  C    0.191172
    17  H    0.166185
    18  C   -0.190433
    19  H    0.191854
    20  C   -0.164863
    21  H    0.158422
    22  C   -0.328662
    23  H    0.167176
    24  H    0.168837
    25  C   -0.302108
    26  H    0.153691
    27  H    0.163894
    28  C   -0.024113
    29  C   -0.166522
    30  H    0.150984
    31  C   -0.301696
    32  H    0.150880
    33  H    0.175717
    34  C   -0.331482
    35  H    0.162245
    36  H    0.161965
    37  C   -0.154141
    38  H    0.158715
    39  C   -0.485928
    40  H    0.163582
    41  H    0.168532
    42  H    0.162053
    43  C   -0.147767
    44  H    0.159034
    45  C   -0.481879
    46  H    0.156579
    47  H    0.158922
    48  H    0.160893
    49  C   -0.477964
    50  H    0.163930
    51  H    0.163480
    52  H    0.174099
    53  O   -0.394929
    54  O   -0.469409
    55  H    0.460512
    56  O   -0.759721
    57  H    0.428146
    58  C   -0.304163
    59  H    0.155677
    60  H    0.153127
    61  C   -0.316894
    62  H    0.160986
    63  H    0.155022
    64  C   -0.300125
    65  H    0.150484
    66  H    0.152071
    67  C   -0.146919
    68  H    0.151864
    69  C   -0.472341
    70  H    0.152271
    71  H    0.158726
    72  H    0.158316
    73  C   -0.476826
    74  H    0.150549
    75  H    0.159642
    76  H    0.161532
 Sum of Mulliken atomic charges =   0.00000

 Dipole moment (field-independent basis, Debye):
    X=             -2.2946    Y=              1.5639    Z=             -0.1676  Tot=              2.7819
 Quadrupole moment (field-independent basis, Debye-Ang):
   XX=           -215.6567   YY=           -185.9283   ZZ=           -189.3240
   XY=              5.6852   XZ=            -10.7225   YZ=             -6.7770

 Normal termination of Gaussian 09 at Fri Apr 28 13:11:49 2017.
