 Gaussian 09, Revision C.01,
 Gaussian 09:  EM64L-G09RevC.01 23-Sep-2011

 ----------------------------------------------------------------------
 #P HF/6-31G* SCF(Conver=6) NoSymm Test Pop=chelpg IOp(6/33=2) GFInput
 GFPrint
 ----------------------------------------------------------------------

 (Enter /scratch/michal/g09/l101.exe)
 ----------------------------------------------
 MEP - Input generated by R.E.D.-III.x MOLECULE
 ----------------------------------------------
 Charge =  0 Multiplicity = 1

                          Input orientation:
 ---------------------------------------------------------------------
 Center     Atomic      Atomic             Coordinates (Angstroms)
 Number     Number       Type             X           Y           Z
 ---------------------------------------------------------------------
      1          6           0        7.515743    2.217948    0.073423
      2          1           0        7.351319    2.188853    1.157516
      3          6           0        6.822474    1.008779   -0.570296
      4          1           0        7.205162    0.083312   -0.128506
      5          1           0        7.106002    0.991965   -1.635268
      6          6           0        5.311317    1.062985   -0.451747
      7          6           0        4.616005    2.360546   -0.878585
      8          6           0        5.408537    3.566447   -0.284155
      9          1           0        5.208385    3.611563    0.795429
     10          1           0        5.023751    4.499033   -0.709575
     11          6           0        6.930226    3.512396   -0.488636
     12          1           0        7.177891    3.582618   -1.558307
     13          1           0        7.403681    4.371539    0.000000
     14          6           0        4.632200    0.000000    0.000000
     15          1           0        5.176245   -0.890465    0.316835
     16          6           0        3.138954   -0.100722    0.106084
     17          1           0        2.853894   -0.197258    1.166413
     18          6           0        2.374564    1.068869   -0.532545
     19          1           0        2.316024    0.857999   -1.605875
     20          6           0        3.155905    2.392901   -0.305685
     21          1           0        3.271381    2.493285    0.786417
     22          6           0        2.339321    3.616921   -0.778761
     23          1           0        2.289666    3.628021   -1.873004
     24          1           0        2.856934    4.538330   -0.490253
     25          6           0        0.904920    3.671166   -0.218047
     26          1           0        0.944642    3.811405    0.871964
     27          1           0        0.406937    4.555890   -0.626578
     28          6           0        0.118507    2.380136   -0.520959
     29          6           0        0.957358    1.201137    0.052836
     30          1           0        1.097208    1.443419    1.121329
     31          6           0        0.000000    0.000000    0.000000
     32          1           0        0.276145   -0.787895    0.705369
     33          1           0        0.013521   -0.461506   -0.992638
     34          6           0       -1.385307    0.623614    0.318794
     35          1           0       -2.136606    0.298938   -0.411175
     36          1           0       -1.747515    0.297289    1.298470
     37          6           0       -1.218460    2.180926    0.275585
     38          1           0       -1.016170    2.529976    1.301025
     39          6           0       -0.134612    2.235631   -2.039434
     40          1           0        0.793581    2.159691   -2.611376
     41          1           0       -0.727883    1.346594   -2.271864
     42          1           0       -0.681302    3.102688   -2.424361
     43          6           0       -2.506174    2.906460   -0.194879
     44          1           0       -2.763618    2.517573   -1.191892
     45          6           0       -2.337823    4.432627   -0.306413
     46          1           0       -1.961447    4.853492    0.634392
     47          1           0       -3.291079    4.921969   -0.528238
     48          1           0       -1.643411    4.716688   -1.100426
     49          6           0        4.630349    2.438396   -2.428566
     50          1           0        4.273985    3.411254   -2.780981
     51          1           0        5.639587    2.302072   -2.826785
     52          1           0        4.001420    1.659196   -2.868715
     53          8           0        2.686623   -1.392533   -0.373765
     54          8           0        2.936188   -1.483931   -1.807544
     55          1           0        3.731271   -2.041564   -1.821952
     56          8           0        8.937288    2.150430   -0.066401
     57          1           0        9.159279    2.203252   -1.006681
     58          6           0       -3.690686    2.569842    0.747635
     59          1           0       -3.662855    1.504808    0.996423
     60          1           0       -3.547688    3.107782    1.697932
     61          6           0       -5.081805    2.898989    0.181345
     62          1           0       -5.121717    3.951342   -0.124768
     63          1           0       -5.242052    2.316137   -0.735912
     64          6           0       -6.242171    2.660070    1.165749
     65          1           0       -7.174532    3.012078    0.699589
     66          1           0       -6.086397    3.297764    2.048039
     67          6           0       -6.465287    1.210283    1.646879
     68          1           0       -5.542361    0.860782    2.131256
     69          6           0       -7.581469    1.169339    2.703012
     70          1           0       -8.535895    1.504248    2.276578
     71          1           0       -7.728313    0.153836    3.088278
     72          1           0       -7.350725    1.820873    3.553749
     73          6           0       -6.783474    0.250476    0.489515
     74          1           0       -7.688670    0.570052   -0.043257
     75          1           0       -6.958427   -0.765758    0.860681
     76          1           0       -5.968895    0.198038   -0.240065
 ---------------------------------------------------------------------

 SCF Done:  E(RHF) =  -1273.68321868     A.U. after    9 cycles

 Alpha  occ. eigenvalues --  -20.62447 -20.62312 -20.56054 -11.28775 -11.28189
 Alpha  occ. eigenvalues --  -11.24921 -11.24426 -11.23226 -11.23158 -11.22954
 Alpha  occ. eigenvalues --  -11.22674 -11.22663 -11.22657 -11.22335 -11.22257
 Alpha  occ. eigenvalues --  -11.22224 -11.22043 -11.21928 -11.21875 -11.21653
 Alpha  occ. eigenvalues --  -11.21513 -11.21418 -11.21358 -11.21151 -11.20939
 Alpha  occ. eigenvalues --  -11.20900 -11.20872 -11.20771 -11.20771 -11.20398
 Alpha  occ. eigenvalues --   -1.45704  -1.35431  -1.22134  -1.15867  -1.13883
 Alpha  occ. eigenvalues --   -1.09586  -1.08052  -1.05901  -1.05677  -1.03067
 Alpha  occ. eigenvalues --   -1.01669  -0.99431  -0.97889  -0.96305  -0.92808
 Alpha  occ. eigenvalues --   -0.92257  -0.92149  -0.90898  -0.90472  -0.86043
 Alpha  occ. eigenvalues --   -0.83992  -0.82928  -0.82416  -0.79151  -0.78483
 Alpha  occ. eigenvalues --   -0.76955  -0.74901  -0.74274  -0.72082  -0.69374
 Alpha  occ. eigenvalues --   -0.69355  -0.67138  -0.65630  -0.65264  -0.64388
 Alpha  occ. eigenvalues --   -0.63943  -0.63213  -0.62898  -0.62771  -0.61384
 Alpha  occ. eigenvalues --   -0.60742  -0.60127  -0.59429  -0.58773  -0.57919
 Alpha  occ. eigenvalues --   -0.57818  -0.57300  -0.56361  -0.56040  -0.55847
 Alpha  occ. eigenvalues --   -0.55403  -0.54687  -0.54208  -0.54077  -0.53752
 Alpha  occ. eigenvalues --   -0.53058  -0.52999  -0.52899  -0.52454  -0.52108
 Alpha  occ. eigenvalues --   -0.51435  -0.50750  -0.50054  -0.49401  -0.48700
 Alpha  occ. eigenvalues --   -0.48348  -0.47946  -0.47468  -0.47201  -0.46800
 Alpha  occ. eigenvalues --   -0.46619  -0.46231  -0.46014  -0.45372  -0.45033
 Alpha  occ. eigenvalues --   -0.44657  -0.44283  -0.43756  -0.43299  -0.43215
 Alpha  occ. eigenvalues --   -0.42657  -0.42339  -0.41555  -0.40445  -0.38613
 Alpha  occ. eigenvalues --   -0.34433
 Alpha virt. eigenvalues --    0.16128   0.20771   0.21267   0.21578   0.22099
 Alpha virt. eigenvalues --    0.22930   0.23143   0.24386   0.24856   0.25367
 Alpha virt. eigenvalues --    0.25741   0.26129   0.26470   0.26778   0.27254

 Mulliken atomic charges:
              1
     1  C    0.193934
     2  H    0.173809
     3  C   -0.368279
     4  H    0.191957
     5  H    0.155434
     6  C    0.083500
     7  C   -0.042205
     8  C   -0.327365
     9  H    0.165848
    10  H    0.174459
    11  C   -0.341366
    12  H    0.144955
    13  H    0.184008
    14  C   -0.279591
    15  H    0.185834
    16  C    0.190346
    17  H    0.186680
    18  C   -0.182580
    19  H    0.208852
    20  C   -0.168177
    21  H    0.156530
    22  C   -0.327908
    23  H    0.165035
    24  H    0.166907
    25  C   -0.297649
    26  H    0.151422
    27  H    0.165298
    28  C   -0.030700
    29  C   -0.168841
    30  H    0.147068
    31  C   -0.305937
    32  H    0.173569
    33  H    0.177634
    34  C   -0.339917
    35  H    0.159500
    36  H    0.164790
    37  C   -0.135300
    38  H    0.150839
    39  C   -0.488258
    40  H    0.163260
    41  H    0.169916
    42  H    0.161276
    43  C   -0.147114
    44  H    0.153555
    45  C   -0.485302
    46  H    0.152886
    47  H    0.162788
    48  H    0.161158
    49  C   -0.480727
    50  H    0.165843
    51  H    0.159927
    52  H    0.180422
    53  O   -0.393200
    54  O   -0.470567
    55  H    0.458934
    56  O   -0.759100
    57  H    0.428508
    58  C   -0.315146
    59  H    0.173040
    60  H    0.146553
    61  C   -0.312963
    62  H    0.157736
    63  H    0.154189
    64  C   -0.296927
    65  H    0.150472
    66  H    0.151462
    67  C   -0.153074
    68  H    0.156578
    69  C   -0.471555
    70  H    0.151986
    71  H    0.158098
    72  H    0.157328
    73  C   -0.476359
    74  H    0.151712
    75  H    0.158538
    76  H    0.161735
 Sum of Mulliken atomic charges =   0.00000

 Dipole moment (field-independent basis, Debye):
    X=              0.7814    Y=              1.2354    Z=             -1.0416  Tot=              1.7949
 Quadrupole moment (field-independent basis, Debye-Ang):
   XX=           -199.5921   YY=           -187.7313   ZZ=           -188.4431
   XY=             -0.6788   XZ=            -14.1947   YZ=             -3.3210

 Normal termination of Gaussian 09 at Fri Apr 28 14:11:25 2017.
