 Gaussian 09, Revision C.01,
 Gaussian 09:  EM64L-G09RevC.01 23-Sep-2011

 ----------------------------------------------------------------------
 #P HF/6-31G* SCF(Conver=6) NoSymm Test Pop=chelpg IOp(6/33=2) GFInput
 GFPrint
 ----------------------------------------------------------------------

 (Enter /scratch/michal/g09/l101.exe)
 ----------------------------------------------
 MEP - Input generated by R.E.D.-III.x MOLECULE
 ----------------------------------------------
 Charge =  0 Multiplicity = 1

                          Input orientation:
 ---------------------------------------------------------------------
 Center     Atomic      Atomic             Coordinates (Angstroms)
 Number     Number       Type             X           Y           Z
 ---------------------------------------------------------------------
      1          6           0       -1.002299    1.976814    1.696579
      2          1           0       -0.992608    0.995263    2.186080
      3          6           0        0.329096    2.688430    1.976420
      4          1           0        0.482384    2.776774    3.056603
      5          1           0        0.245747    3.714828    1.583548
      6          6           0        1.514641    1.996347    1.331532
      7          6           0        1.404488    1.649569   -0.157498
      8          6           0        0.001096    1.017301   -0.415560
      9          1           0        0.000000    0.000000    0.000000
     10          1           0       -0.157151    0.911507   -1.493777
     11          6           0       -1.182885    1.785573    0.191502
     12          1           0       -1.286688    2.771888   -0.284772
     13          1           0       -2.116738    1.244935    0.000000
     14          6           0        2.608486    1.719994    2.054227
     15          1           0        2.625763    1.962416    3.117343
     16          6           0        3.868150    1.098536    1.526895
     17          1           0        4.012060    0.110617    1.994093
     18          6           0        3.917271    0.961743   -0.002386
     19          1           0        4.217562    1.939167   -0.394683
     20          6           0        2.504112    0.597910   -0.540504
     21          1           0        2.213766   -0.331738   -0.023185
     22          6           0        2.536181    0.269872   -2.051631
     23          1           0        2.711536    1.185172   -2.626953
     24          1           0        1.555422   -0.102744   -2.366610
     25          6           0        3.601223   -0.773393   -2.441154
     26          1           0        3.345336   -1.739401   -1.983602
     27          1           0        3.568300   -0.921813   -3.526942
     28          6           0        5.007788   -0.354755   -1.975394
     29          6           0        4.927756   -0.114350   -0.437647
     30          1           0        4.547442   -1.061860   -0.017790
     31          6           0        6.400998    0.000000    0.000000
     32          1           0        6.541370   -0.246403    1.055545
     33          1           0        6.761228    1.026326   -0.123957
     34          6           0        7.147542   -0.981656   -0.947042
     35          1           0        7.990075   -0.481769   -1.435826
     36          1           0        7.572080   -1.832545   -0.402524
     37          6           0        6.100668   -1.479289   -1.992789
     38          1           0        5.603632   -2.344841   -1.532695
     39          6           0        5.460710    0.917258   -2.729973
     40          1           0        4.864938    1.791409   -2.455463
     41          1           0        6.505214    1.167282   -2.529257
     42          1           0        5.354702    0.783817   -3.810460
     43          6           0        6.756529   -2.042629   -3.286318
     44          1           0        7.505352   -2.753508   -2.904963
     45          6           0        7.544112   -1.044816   -4.159484
     46          1           0        6.884202   -0.416295   -4.764735
     47          1           0        8.190483   -1.595102   -4.852752
     48          1           0        8.187365   -0.384401   -3.570876
     49          6           0        1.546985    2.958701   -0.978835
     50          1           0        1.334644    2.788073   -2.038733
     51          1           0        0.851089    3.727101   -0.631020
     52          1           0        2.555618    3.372477   -0.890275
     53          8           0        5.029391    1.780243    2.065061
     54          8           0        5.070281    3.140663    1.541360
     55          1           0        4.743232    3.642946    2.305580
     56          8           0       -2.104826    2.657967    2.301055
     57          1           0       -2.192995    3.529973    1.891137
     58          6           0        5.800232   -2.852168   -4.196561
     59          1           0        5.034120   -2.177716   -4.599855
     60          1           0        6.382343   -3.189298   -5.066614
     61          6           0        5.106061   -4.086462   -3.588011
     62          1           0        4.468765   -3.784561   -2.749176
     63          1           0        4.426283   -4.488020   -4.350272
     64          6           0        6.075118   -5.192386   -3.137782
     65          1           0        6.709374   -4.812765   -2.325710
     66          1           0        6.755649   -5.422486   -3.970908
     67          6           0        5.430946   -6.515218   -2.658539
     68          1           0        6.266782   -7.167669   -2.365476
     69          6           0        4.548272   -6.326531   -1.413490
     70          1           0        3.653741   -5.734318   -1.638615
     71          1           0        4.210070   -7.293935   -1.024931
     72          1           0        5.094089   -5.817007   -0.610613
     73          6           0        4.663109   -7.243313   -3.774405
     74          1           0        3.770779   -6.686888   -4.083410
     75          1           0        4.329843   -8.231166   -3.436257
     76          1           0        5.290933   -7.388496   -4.661419
 ---------------------------------------------------------------------

 SCF Done:  E(RHF) =  -1273.67548943     A.U. after    9 cycles

 Alpha  occ. eigenvalues --  -20.62441 -20.62306 -20.56050 -11.28768 -11.28185
 Alpha  occ. eigenvalues --  -11.24931 -11.24416 -11.23269 -11.23151 -11.22959
 Alpha  occ. eigenvalues --  -11.22673 -11.22660 -11.22650 -11.22541 -11.22337
 Alpha  occ. eigenvalues --  -11.22270 -11.22043 -11.21957 -11.21798 -11.21651
 Alpha  occ. eigenvalues --  -11.21601 -11.21464 -11.21416 -11.21364 -11.21084
 Alpha  occ. eigenvalues --  -11.21022 -11.20833 -11.20667 -11.20618 -11.20426
 Alpha  occ. eigenvalues --   -1.45697  -1.35427  -1.22136  -1.15855  -1.13840
 Alpha  occ. eigenvalues --   -1.09529  -1.07991  -1.05894  -1.05649  -1.03073
 Alpha  occ. eigenvalues --   -1.01625  -0.99458  -0.97836  -0.96341  -0.92429
 Alpha  occ. eigenvalues --   -0.92410  -0.92329  -0.91395  -0.90440  -0.86039
 Alpha  occ. eigenvalues --   -0.84178  -0.83104  -0.82858  -0.79161  -0.78534
 Alpha  occ. eigenvalues --   -0.76862  -0.75033  -0.73758  -0.71361  -0.69385
 Alpha  occ. eigenvalues --   -0.69036  -0.67130  -0.65662  -0.65026  -0.64528
 Alpha  occ. eigenvalues --   -0.63778  -0.63042  -0.62847  -0.62423  -0.61739
 Alpha  occ. eigenvalues --   -0.61078  -0.60232  -0.59132  -0.59021  -0.58653
 Alpha  occ. eigenvalues --   -0.57925  -0.57446  -0.56138  -0.56088  -0.55912
 Alpha  occ. eigenvalues --   -0.55587  -0.54806  -0.54443  -0.54062  -0.53744
 Alpha  occ. eigenvalues --   -0.53403  -0.53062  -0.52754  -0.52112  -0.51708
 Alpha  occ. eigenvalues --   -0.51396  -0.50595  -0.50361  -0.49790  -0.48623
 Alpha  occ. eigenvalues --   -0.48340  -0.48145  -0.47794  -0.47179  -0.47008
 Alpha  occ. eigenvalues --   -0.46849  -0.46247  -0.46030  -0.45299  -0.45040
 Alpha  occ. eigenvalues --   -0.44768  -0.44350  -0.43363  -0.43154  -0.42739
 Alpha  occ. eigenvalues --   -0.42578  -0.42012  -0.41639  -0.40355  -0.38582
 Alpha  occ. eigenvalues --   -0.34422
 Alpha virt. eigenvalues --    0.16138   0.20138   0.20879   0.21530   0.22171
 Alpha virt. eigenvalues --    0.22561   0.23052   0.23843   0.24811   0.25069
 Alpha virt. eigenvalues --    0.25653   0.25901   0.26258   0.26996   0.27081

 Mulliken atomic charges:
              1
     1  C    0.193895
     2  H    0.173825
     3  C   -0.368314
     4  H    0.191924
     5  H    0.155466
     6  C    0.083398
     7  C   -0.042302
     8  C   -0.327369
     9  H    0.165811
    10  H    0.174390
    11  C   -0.341310
    12  H    0.144980
    13  H    0.184007
    14  C   -0.279434
    15  H    0.185765
    16  C    0.192014
    17  H    0.186511
    18  C   -0.183756
    19  H    0.209003
    20  C   -0.168199
    21  H    0.156367
    22  C   -0.327776
    23  H    0.166594
    24  H    0.166877
    25  C   -0.301614
    26  H    0.152954
    27  H    0.162945
    28  C   -0.023337
    29  C   -0.171333
    30  H    0.146793
    31  C   -0.305787
    32  H    0.173133
    33  H    0.178351
    34  C   -0.331754
    35  H    0.160780
    36  H    0.160857
    37  C   -0.154423
    38  H    0.157162
    39  C   -0.485802
    40  H    0.162812
    41  H    0.170676
    42  H    0.159418
    43  C   -0.147367
    44  H    0.158157
    45  C   -0.481447
    46  H    0.155627
    47  H    0.157515
    48  H    0.161869
    49  C   -0.480483
    50  H    0.165939
    51  H    0.159977
    52  H    0.180158
    53  O   -0.393428
    54  O   -0.470523
    55  H    0.458956
    56  O   -0.759071
    57  H    0.428508
    58  C   -0.303055
    59  H    0.154801
    60  H    0.151979
    61  C   -0.321390
    62  H    0.160925
    63  H    0.158894
    64  C   -0.305327
    65  H    0.156050
    66  H    0.150678
    67  C   -0.145720
    68  H    0.155652
    69  C   -0.476957
    70  H    0.155017
    71  H    0.158884
    72  H    0.156373
    73  C   -0.476320
    74  H    0.155488
    75  H    0.158311
    76  H    0.157136
 Sum of Mulliken atomic charges =   0.00000

 Dipole moment (field-independent basis, Debye):
    X=             -1.0906    Y=              0.6049    Z=             -1.1259  Tot=              1.6802
 Quadrupole moment (field-independent basis, Debye-Ang):
   XX=           -212.8402   YY=           -181.4617   ZZ=           -193.7284
   XY=             -5.1840   XZ=              3.8230   YZ=              0.6281

 Normal termination of Gaussian 09 at Fri Apr 28 12:50:45 2017.
