 Gaussian 09, Revision C.01,
 Gaussian 09:  EM64L-G09RevC.01 23-Sep-2011

 ----------------------------------------------------------------------
 #P HF/6-31G* SCF(Conver=6) NoSymm Test Pop=chelpg IOp(6/33=2) GFInput
 GFPrint
 ----------------------------------------------------------------------

 (Enter /scratch/michal/g09/l101.exe)
 ----------------------------------------------
 MEP - Input generated by R.E.D.-III.x MOLECULE
 ----------------------------------------------
 Charge =  0 Multiplicity = 1

                          Input orientation:
 ---------------------------------------------------------------------
 Center     Atomic      Atomic             Coordinates (Angstroms)
 Number     Number       Type             X           Y           Z
 ---------------------------------------------------------------------
      1          6           0        7.511483    2.217297    0.070885
      2          1           0        7.345163    2.188385    1.154736
      3          6           0        6.820779    1.007498   -0.573537
      4          1           0        7.201087    0.082363   -0.129847
      5          1           0        7.107106    0.988071   -1.637870
      6          6           0        5.309137    1.062309   -0.455597
      7          6           0        4.618732    2.357909   -0.893455
      8          6           0        5.403990    3.565701   -0.293437
      9          1           0        5.198787    3.607531    0.785363
     10          1           0        5.020507    4.499191   -0.718749
     11          6           0        6.926712    3.512526   -0.491577
     12          1           0        7.178590    3.584680   -1.560008
     13          1           0        7.397866    4.371285    0.000000
     14          6           0        4.632246    0.000000    0.000000
     15          1           0        5.172273   -0.893122    0.306315
     16          6           0        3.138659   -0.103308    0.096301
     17          1           0        2.834024   -0.213515    1.148686
     18          6           0        2.376171    1.062224   -0.555052
     19          1           0        2.319005    0.842654   -1.629305
     20          6           0        3.153502    2.391080   -0.338810
     21          1           0        3.253920    2.504616    0.752942
     22          6           0        2.335648    3.602898   -0.840737
     23          1           0        2.292405    3.591337   -1.935230
     24          1           0        2.851559    4.530087   -0.568870
     25          6           0        0.898799    3.667176   -0.288507
     26          1           0        0.933070    3.830061    0.798486
     27          1           0        0.400036    4.541741   -0.717745
     28          6           0        0.115265    2.369026   -0.567903
     29          6           0        0.956806    1.202364    0.026153
     30          1           0        1.098199    1.464183    1.088951
     31          6           0        0.000000    0.000000    0.000000
     32          1           0        0.277559   -0.767618    0.728999
     33          1           0        0.012408   -0.484419   -0.981528
     34          6           0       -1.386293    0.627311    0.308403
     35          1           0       -2.138162    0.288705   -0.414132
     36          1           0       -1.746964    0.317926    1.293931
     37          6           0       -1.219019    2.183753    0.235234
     38          1           0       -1.015274    2.552356    1.253406
     39          6           0       -0.138702    2.196633   -2.083379
     40          1           0        0.789578    2.116270   -2.654558
     41          1           0       -0.728193    1.301033   -2.300842
     42          1           0       -0.689401    3.054184   -2.483051
     43          6           0       -2.509930    2.892530   -0.248680
     44          1           0       -2.756362    2.478778   -1.237625
     45          6           0       -2.353406    4.417037   -0.401572
     46          1           0       -1.979432    4.865267    0.527345
     47          1           0       -3.317346    4.884735   -0.624483
     48          1           0       -1.665309    4.690732   -1.205452
     49          6           0        4.649344    2.434609   -2.443447
     50          1           0        4.306463    3.410254   -2.801895
     51          1           0        5.660708    2.286700   -2.830908
     52          1           0        4.018490    1.660861   -2.890977
     53          8           0        2.682040   -1.287040   -0.606078
     54          8           0        3.155044   -2.453850    0.132293
     55          1           0        2.308023   -2.824350    0.430270
     56          8           0        8.933903    2.153952   -0.066011
     57          1           0        9.155083    2.168623   -1.007845
     58          6           0       -3.706782    2.576932    0.701394
     59          1           0       -3.431998    1.777388    1.397153
     60          1           0       -3.906062    3.456724    1.329617
     61          6           0       -5.014424    2.150419    0.005723
     62          1           0       -4.819256    1.248969   -0.594012
     63          1           0       -5.726947    1.848865    0.783750
     64          6           0       -5.661683    3.214603   -0.893052
     65          1           0       -4.944703    3.517554   -1.667294
     66          1           0       -5.869785    4.117472   -0.298046
     67          6           0       -6.962726    2.772496   -1.595899
     68          1           0       -6.746798    1.837277   -2.135580
     69          6           0       -8.105903    2.492632   -0.606643
     70          1           0       -8.343885    3.392512   -0.024450
     71          1           0       -9.016318    2.191197   -1.137074
     72          1           0       -7.857716    1.693900    0.099226
     73          6           0       -7.397335    3.820748   -2.632750
     74          1           0       -7.621366    4.779848   -2.148212
     75          1           0       -8.298957    3.501690   -3.167942
     76          1           0       -6.611326    3.998859   -3.375597
 ---------------------------------------------------------------------

 SCF Done:  E(RHF) =  -1273.67989876     A.U. after    9 cycles

 Alpha  occ. eigenvalues --  -20.62431 -20.62311 -20.55605 -11.28593 -11.27706
 Alpha  occ. eigenvalues --  -11.24650 -11.23632 -11.23336 -11.23094 -11.23064
 Alpha  occ. eigenvalues --  -11.22704 -11.22626 -11.22540 -11.22499 -11.22342
 Alpha  occ. eigenvalues --  -11.22306 -11.22253 -11.22071 -11.21870 -11.21853
 Alpha  occ. eigenvalues --  -11.21794 -11.21792 -11.21612 -11.21599 -11.21568
 Alpha  occ. eigenvalues --  -11.21465 -11.21231 -11.21166 -11.21127 -11.21072
 Alpha  occ. eigenvalues --   -1.45722  -1.34969  -1.22356  -1.15866  -1.13931
 Alpha  occ. eigenvalues --   -1.09788  -1.08147  -1.05878  -1.05474  -1.03186
 Alpha  occ. eigenvalues --   -1.01649  -0.99644  -0.98018  -0.96235  -0.93154
 Alpha  occ. eigenvalues --   -0.92498  -0.92178  -0.91363  -0.90799  -0.85848
 Alpha  occ. eigenvalues --   -0.84021  -0.82907  -0.82254  -0.79000  -0.78212
 Alpha  occ. eigenvalues --   -0.77049  -0.76072  -0.74762  -0.72532  -0.70873
 Alpha  occ. eigenvalues --   -0.67866  -0.66609  -0.66083  -0.65146  -0.64381
 Alpha  occ. eigenvalues --   -0.63624  -0.63447  -0.62491  -0.61714  -0.61483
 Alpha  occ. eigenvalues --   -0.60934  -0.60418  -0.59839  -0.59235  -0.58852
 Alpha  occ. eigenvalues --   -0.57823  -0.57287  -0.56619  -0.56086  -0.55763
 Alpha  occ. eigenvalues --   -0.55473  -0.54850  -0.54404  -0.53840  -0.53641
 Alpha  occ. eigenvalues --   -0.53567  -0.53160  -0.52864  -0.52641  -0.52266
 Alpha  occ. eigenvalues --   -0.52006  -0.50814  -0.50351  -0.49507  -0.48855
 Alpha  occ. eigenvalues --   -0.48391  -0.48110  -0.47852  -0.47333  -0.47118
 Alpha  occ. eigenvalues --   -0.46617  -0.46163  -0.45662  -0.45212  -0.44959
 Alpha  occ. eigenvalues --   -0.44754  -0.44688  -0.44283  -0.43673  -0.43602
 Alpha  occ. eigenvalues --   -0.42622  -0.42314  -0.41889  -0.40703  -0.38932
 Alpha  occ. eigenvalues --   -0.33826
 Alpha virt. eigenvalues --    0.17014   0.20482   0.21091   0.21701   0.22028
 Alpha virt. eigenvalues --    0.22809   0.22918   0.23721   0.24844   0.25114
 Alpha virt. eigenvalues --    0.25387   0.25888   0.26281   0.26725   0.27037

 Mulliken atomic charges:
              1
     1  C    0.193720
     2  H    0.172301
     3  C   -0.366695
     4  H    0.195111
     5  H    0.154576
     6  C    0.069061
     7  C   -0.040990
     8  C   -0.326232
     9  H    0.164442
    10  H    0.171802
    11  C   -0.339500
    12  H    0.144630
    13  H    0.182362
    14  C   -0.249966
    15  H    0.212663
    16  C    0.189956
    17  H    0.166272
    18  C   -0.189587
    19  H    0.191546
    20  C   -0.164807
    21  H    0.158634
    22  C   -0.328788
    23  H    0.165593
    24  H    0.168823
    25  C   -0.298052
    26  H    0.152376
    27  H    0.166498
    28  C   -0.031852
    29  C   -0.163707
    30  H    0.151180
    31  C   -0.302124
    32  H    0.151231
    33  H    0.174792
    34  C   -0.337004
    35  H    0.162196
    36  H    0.165354
    37  C   -0.142887
    38  H    0.153087
    39  C   -0.489058
    40  H    0.164425
    41  H    0.167321
    42  H    0.163638
    43  C   -0.138863
    44  H    0.158043
    45  C   -0.489194
    46  H    0.154174
    47  H    0.166668
    48  H    0.158518
    49  C   -0.478114
    50  H    0.163865
    51  H    0.163448
    52  H    0.174154
    53  O   -0.394821
    54  O   -0.469528
    55  H    0.460475
    56  O   -0.759766
    57  H    0.428134
    58  C   -0.320094
    59  H    0.165529
    60  H    0.156221
    61  C   -0.308695
    62  H    0.149814
    63  H    0.157774
    64  C   -0.302197
    65  H    0.157750
    66  H    0.146811
    67  C   -0.146638
    68  H    0.151406
    69  C   -0.476632
    70  H    0.151974
    71  H    0.158833
    72  H    0.162324
    73  C   -0.472545
    74  H    0.152760
    75  H    0.158621
    76  H    0.157452
 Sum of Mulliken atomic charges =   0.00000

 Dipole moment (field-independent basis, Debye):
    X=             -2.2958    Y=              1.3219    Z=             -0.2278  Tot=              2.6589
 Quadrupole moment (field-independent basis, Debye-Ang):
   XX=           -216.1606   YY=           -188.1201   ZZ=           -188.3637
   XY=              6.6599   XZ=            -10.5831   YZ=             -6.7416

 Normal termination of Gaussian 09 at Fri Apr 28 13:28:23 2017.
