 Gaussian 09, Revision D.01,
 Gaussian 09:  EM64L-G09RevD.01 24-Apr-2013

 ----------------------------------------------------------------------
 #P HF/6-31G* SCF(Conver=6) NoSymm Test Pop=mk IOp(6/33=2) GFInput GFPr
 int
 ----------------------------------------------------------------------

 ----------------------------------------------
 MEP - Input generated by R.E.D.-III.x MOLECULE
 ----------------------------------------------
 Symbolic Z-matrix:
 Charge =  0 Multiplicity = 1

                          Input orientation:
 ---------------------------------------------------------------------
 Center     Atomic      Atomic             Coordinates (Angstroms)
 Number     Number       Type             X           Y           Z
 ---------------------------------------------------------------------
      1          8           0        4.988580   -0.240075   -7.259187
      2          1           0        5.940273   -0.325178   -7.114322
      3          6           0        0.000000    0.000000    0.000000
      4          6           0        1.554625    0.000000    0.000000
      5          1           0        1.840387    1.066112    0.000000
      6          6           0        2.213012   -0.603764   -1.247306
      7          1           0        1.947701   -1.668337   -1.316399
      8          6           0        1.708740    0.130326   -2.517397
      9          1           0        2.115319    1.152885   -2.446647
     10          6           0       -0.266993    0.644440    1.404810
     11          1           0       -0.006182    1.707943    1.296299
     12          6           0       -0.435652    0.821334   -1.230943
     13          1           0       -0.109992    1.862542   -1.092150
     14          1           0       -1.525039    0.847391   -1.336070
     15          6           0        2.301937   -0.471807   -3.839512
     16          6           0        1.938541   -0.550965    1.382415
     17          1           0        2.931283   -0.218978    1.702381
     18          1           0        1.961748   -1.647787    1.370142
     19          6           0        0.168216    0.263483   -2.536639
     20          1           0       -0.286894   -0.711269   -2.741460
     21          1           0       -0.134803    0.915542   -3.363674
     22          6           0        0.812455   -0.026868    2.316773
     23          1           0        0.368157   -0.851639    2.886284
     24          1           0        1.198610    0.682064    3.055807
     25          6           0        3.744822   -0.505782   -1.162497
     26          1           0        4.129799   -1.233023   -0.435281
     27          1           0        4.027979    0.482494   -0.763317
     28          6           0       -1.687388    0.578623    2.018451
     29          1           0       -1.939172   -0.486033    2.135100
     30          6           0       -0.593766   -1.426177   -0.059186
     31          1           0       -1.687244   -1.387105   -0.108316
     32          1           0       -0.252414   -1.982608   -0.935526
     33          1           0       -0.328614   -2.018564    0.821808
     34          6           0        3.807842   -0.722844   -3.677354
     35          6           0        2.103227    0.562803   -4.990777
     36          1           0        2.427917    1.547371   -4.626147
     37          1           0        1.035761    0.653052   -5.219577
     38          6           0        4.424001   -0.715713   -2.486083
     39          1           0        5.502241   -0.876919   -2.456478
     40          6           0        1.611284   -1.808928   -4.220061
     41          1           0        0.571388   -1.650211   -4.522523
     42          1           0        2.117290   -2.298294   -5.055974
     43          1           0        1.621347   -2.511610   -3.381113
     44          6           0        4.593607   -0.985422   -4.948625
     45          1           0        5.662646   -1.056163   -4.709840
     46          1           0        4.304882   -1.948021   -5.393978
     47          6           0        2.866207    0.245705   -6.285163
     48          1           0        2.499550   -0.680493   -6.745112
     49          1           0        2.707425    1.044332   -7.018683
     50          6           0       -1.729655    1.147778    3.466757
     51          1           0       -2.756393    1.034041    3.839030
     52          1           0       -1.121731    0.489100    4.098381
     53          6           0        4.357540    0.092560   -6.016382
     54          1           0        4.755022    1.053144   -5.648883
     55          6           0       -2.778112    1.191915    1.119205
     56          1           0       -2.507167    2.190181    0.761306
     57          1           0       -3.724462    1.278864    1.664667
     58          1           0       -2.969262    0.571536    0.239437
     59          6           0       -1.246144    2.592364    3.728839
     60          1           0       -1.056365    2.680262    4.806397
     61          1           0       -0.267247    2.740624    3.255730
     62          6           0       -2.161775    3.758535    3.303696
     63          1           0       -2.271361    3.767840    2.213111
     64          1           0       -1.646436    4.697125    3.558286
     65          6           0       -3.569209    3.805854    3.935818
     66          1           0       -4.097946    2.878411    3.674031
     67          6           0       -4.374557    4.974789    3.345641
     68          1           0       -4.449356    4.898249    2.254813
     69          1           0       -5.392609    5.001817    3.750740
     70          1           0       -3.898117    5.935524    3.579887
     71          6           0       -3.523938    3.903293    5.469159
     72          1           0       -3.032787    3.037371    5.924534
     73          1           0       -4.535338    3.965076    5.886776
     74          1           0       -2.978488    4.801812    5.786310
 ---------------------------------------------------------------------

 SCF Done:  E(RHF) =  -1124.07291716     A.U. after    9 cycles

 Alpha  occ. eigenvalues --  -20.55361 -11.27439 -11.23907 -11.22712 -11.22685
 Alpha  occ. eigenvalues --  -11.22409 -11.22373 -11.22330 -11.22145 -11.22059
 Alpha  occ. eigenvalues --  -11.22002 -11.21999 -11.21934 -11.21924 -11.21595
 Alpha  occ. eigenvalues --  -11.21574 -11.21490 -11.21470 -11.21453 -11.21402
 Alpha  occ. eigenvalues --  -11.21393 -11.21378 -11.21354 -11.21184 -11.21011
 Alpha  occ. eigenvalues --  -11.21000 -11.20947 -11.20900  -1.34664  -1.15882
 Alpha  occ. eigenvalues --   -1.13461  -1.09535  -1.07916  -1.06041  -1.05385
 Alpha  occ. eigenvalues --   -1.02672  -1.01234  -0.99509  -0.97710  -0.95833
 Alpha  occ. eigenvalues --   -0.92847  -0.92395  -0.91973  -0.91492  -0.90710
 Alpha  occ. eigenvalues --   -0.85970  -0.83875  -0.82433  -0.81788  -0.79092
 Alpha  occ. eigenvalues --   -0.76676  -0.76381  -0.75052  -0.72618  -0.71257
 Alpha  occ. eigenvalues --   -0.69003  -0.66931  -0.65342  -0.64311  -0.63897
 Alpha  occ. eigenvalues --   -0.63381  -0.62392  -0.61975  -0.60909  -0.60058
 Alpha  occ. eigenvalues --   -0.59506  -0.58990  -0.58392  -0.57946  -0.57714
 Alpha  occ. eigenvalues --   -0.56603  -0.56051  -0.55467  -0.55147  -0.54739
 Alpha  occ. eigenvalues --   -0.54341  -0.53866  -0.53472  -0.53033  -0.52949
 Alpha  occ. eigenvalues --   -0.52554  -0.52336  -0.51470  -0.51234  -0.50718
 Alpha  occ. eigenvalues --   -0.50485  -0.50178  -0.49572  -0.48478  -0.47703
 Alpha  occ. eigenvalues --   -0.47391  -0.46959  -0.46687  -0.46134  -0.45410
 Alpha  occ. eigenvalues --   -0.44719  -0.44560  -0.44291  -0.43929  -0.43646
 Alpha  occ. eigenvalues --   -0.43412  -0.42999  -0.42876  -0.42100  -0.41625
 Alpha  occ. eigenvalues --   -0.39813  -0.38534  -0.32791
 Alpha virt. eigenvalues --    0.18166   0.20413   0.22023   0.22347   0.22574
 Alpha virt. eigenvalues --    0.23291   0.23892   0.24499   0.24620   0.25472
 Alpha virt. eigenvalues --    0.25978   0.26455   0.26885   0.27633   0.28232

 Mulliken charges:
               1
     1  O   -0.765594
     2  H    0.433042
     3  C   -0.027476
     4  C   -0.157803
     5  H    0.150898
     6  C   -0.153814
     7  H    0.163638
     8  C   -0.154773
     9  H    0.155045
    10  C   -0.141985
    11  H    0.155834
    12  C   -0.298520
    13  H    0.150762
    14  H    0.163998
    15  C   -0.038334
    16  C   -0.316432
    17  H    0.165509
    18  H    0.158431
    19  C   -0.327870
    20  H    0.164010
    21  H    0.166022
    22  C   -0.336566
    23  H    0.160801
    24  H    0.168206
    25  C   -0.324431
    26  H    0.170247
    27  H    0.161197
    28  C   -0.142896
    29  H    0.155835
    30  C   -0.489829
    31  H    0.162313
    32  H    0.165147
    33  H    0.164090
    34  C    0.063461
    35  C   -0.326332
    36  H    0.160338
    37  H    0.169562
    38  C   -0.235032
    39  H    0.172003
    40  C   -0.480236
    41  H    0.162429
    42  H    0.168583
    43  H    0.165342
    44  C   -0.370692
    45  H    0.159912
    46  H    0.179331
    47  C   -0.327110
    48  H    0.171487
    49  H    0.178779
    50  C   -0.318999
    51  H    0.157529
    52  H    0.162117
    53  C    0.194456
    54  H    0.144556
    55  C   -0.489054
    56  H    0.158807
    57  H    0.159163
    58  H    0.161605
    59  C   -0.319729
    60  H    0.158125
    61  H    0.160157
    62  C   -0.299876
    63  H    0.157359
    64  H    0.148976
    65  C   -0.151674
    66  H    0.155398
    67  C   -0.472098
    68  H    0.157713
    69  H    0.157907
    70  H    0.152291
    71  C   -0.477318
    72  H    0.162036
    73  H    0.158171
    74  H    0.151854
 Sum of Mulliken charges =   0.00000

 Dipole moment (field-independent basis, Debye):
    X=              0.5134    Y=              0.0553    Z=              1.6196  Tot=              1.6999
 Quadrupole moment (field-independent basis, Debye-Ang):
   XX=           -171.5943   YY=           -182.2366   ZZ=           -202.6450
   XY=              1.5204   XZ=              3.6930   YZ=             -1.9665

 ESP charges:
               1
     1  O   -0.744461
     2  H    0.430810
     3  C    0.518696
     4  C   -0.052024
     5  H    0.003200
     6  C    0.045053
     7  H    0.021558
     8  C   -0.075041
     9  H    0.014584
    10  C    0.094039
    11  H   -0.044475
    12  C   -0.141780
    13  H   -0.004243
    14  H    0.020467
    15  C    0.534891
    16  C   -0.193079
    17  H    0.050862
    18  H    0.046231
    19  C   -0.078726
    20  H    0.024262
    21  H    0.031195
    22  C   -0.080131
    23  H    0.017221
    24  H    0.027534
    25  C   -0.048859
    26  H    0.047882
    27  H    0.041889
    28  C    0.287060
    29  H   -0.047362
    30  C   -0.581460
    31  H    0.112542
    32  H    0.122919
    33  H    0.120345
    34  C   -0.163525
    35  C   -0.322637
    36  H    0.061035
    37  H    0.073197
    38  C   -0.263567
    39  H    0.147310
    40  C   -0.447039
    41  H    0.084547
    42  H    0.116799
    43  H    0.092152
    44  C   -0.246700
    45  H    0.076477
    46  H    0.096797
    47  C   -0.018340
    48  H    0.048632
    49  H    0.047229
    50  C   -0.210354
    51  H    0.050465
    52  H    0.025257
    53  C    0.387711
    54  H   -0.013923
    55  C   -0.472291
    56  H    0.091954
    57  H    0.111093
    58  H    0.098702
    59  C   -0.006592
    60  H    0.027262
    61  H    0.016911
    62  C   -0.199313
    63  H    0.041746
    64  H    0.036902
    65  C    0.497356
    66  H   -0.050302
    67  C   -0.509158
    68  H    0.102855
    69  H    0.114776
    70  H    0.114035
    71  C   -0.460184
    72  H    0.101373
    73  H    0.095576
    74  H    0.104179
 Sum of ESP charges =   0.00000

 Normal termination of Gaussian 09 at Tue Mar 21 12:16:55 2017.
