 Gaussian 09, Revision D.01,
 Gaussian 09:  EM64L-G09RevD.01 24-Apr-2013

 ----------------------------------------------------------------------
 #P HF/6-31G* SCF(Conver=6) NoSymm Test Pop=mk IOp(6/33=2) GFInput GFPr
 int
 ----------------------------------------------------------------------

 ----------------------------------------------
 MEP - Input generated by R.E.D.-III.x MOLECULE
 ----------------------------------------------
 Symbolic Z-matrix:
 Charge =  0 Multiplicity = 1

                          Input orientation:
 ---------------------------------------------------------------------
 Center     Atomic      Atomic             Coordinates (Angstroms)
 Number     Number       Type             X           Y           Z
 ---------------------------------------------------------------------
      1          8           0        4.996754   -0.221522   -7.254886
      2          1           0        5.947965   -0.310327   -7.109074
      3          6           0        0.000000    0.000000    0.000000
      4          6           0        1.554529    0.000000    0.000000
      5          1           0        1.840370    1.066155    0.000000
      6          6           0        2.212763   -0.603395   -1.247613
      7          1           0        1.945326   -1.667269   -1.319085
      8          6           0        1.709999    0.134410   -2.516201
      9          1           0        2.116014    1.156918   -2.441495
     10          6           0       -0.267891    0.645519    1.403830
     11          1           0       -0.014454    1.710322    1.293465
     12          6           0       -0.436001    0.821664   -1.230386
     13          1           0       -0.112271    1.863296   -1.090225
     14          1           0       -1.525482    0.846317   -1.335970
     15          6           0        2.304636   -0.462480   -3.840202
     16          6           0        1.937841   -0.550039    1.382784
     17          1           0        2.932996   -0.223366    1.700723
     18          1           0        1.954241   -1.647027    1.372914
     19          6           0        0.169290    0.266490   -2.536581
     20          1           0       -0.284507   -0.708566   -2.743330
     21          1           0       -0.133751    0.919454   -3.362914
     22          6           0        0.816037   -0.016998    2.317169
     23          1           0        0.375085   -0.835240    2.898582
     24          1           0        1.206233    0.700809    3.045713
     25          6           0        3.744657   -0.508502   -1.161421
     26          1           0        4.127683   -1.238678   -0.436117
     27          1           0        4.029354    0.477988   -0.758949
     28          6           0       -1.686854    0.571329    2.020313
     29          1           0       -1.938016   -0.493241    2.135496
     30          6           0       -0.594516   -1.425702   -0.058660
     31          1           0       -1.687936   -1.385482   -0.108444
     32          1           0       -0.252844   -1.982969   -0.934296
     33          1           0       -0.330571   -2.017529    0.823120
     34          6           0        3.809696   -0.717449   -3.676903
     35          6           0        2.110773    0.578865   -4.986342
     36          1           0        2.438311    1.560390   -4.616197
     37          1           0        1.043912    0.673774   -5.215997
     38          6           0        4.424625   -0.715542   -2.484997
     39          1           0        5.502507   -0.879026   -2.454890
     40          6           0        1.611674   -1.795936   -4.229000
     41          1           0        0.572956   -1.633251   -4.533406
     42          1           0        2.118647   -2.282654   -5.065828
     43          1           0        1.617782   -2.502612   -3.393348
     44          6           0        4.596594   -0.976376   -4.948266
     45          1           0        5.665099   -1.051011   -4.708264
     46          1           0        4.306044   -1.936103   -5.398579
     47          6           0        2.874485    0.266020   -6.281364
     48          1           0        2.505744   -0.656799   -6.746323
     49          1           0        2.718991    1.068745   -7.011107
     50          6           0       -1.736496    1.164929    3.453883
     51          1           0       -2.746927    0.988796    3.850032
     52          1           0       -1.059791    0.598720    4.106149
     53          6           0        4.365026    0.107217   -6.011380
     54          1           0        4.764850    1.064916   -5.638929
     55          6           0       -2.779949    1.205126    1.139443
     56          1           0       -2.519630    2.224749    0.834072
     57          1           0       -3.730000    1.254508    1.684692
     58          1           0       -2.958430    0.626370    0.229733
     59          6           0       -1.414135    2.662393    3.592220
     60          1           0       -0.395619    2.855226    3.233594
     61          1           0       -2.084523    3.244717    2.948694
     62          6           0       -1.547117    3.145565    5.045992
     63          1           0       -0.888062    2.535403    5.680709
     64          1           0       -2.571209    2.941609    5.390934
     65          6           0       -1.233014    4.636172    5.312747
     66          1           0       -1.387118    4.788012    6.391408
     67          6           0       -2.196832    5.585348    4.581472
     68          1           0       -3.242537    5.337525    4.798691
     69          1           0       -2.029205    6.623984    4.888696
     70          1           0       -2.061455    5.540557    3.494659
     71          6           0        0.231320    4.996809    5.011984
     72          1           0        0.923093    4.328386    5.538131
     73          1           0        0.453090    6.022514    5.328236
     74          1           0        0.452442    4.931036    3.940394
 ---------------------------------------------------------------------

 SCF Done:  E(RHF) =  -1124.07855120     A.U. after    9 cycles

 Alpha  occ. eigenvalues --  -20.55354 -11.27431 -11.23896 -11.22701 -11.22646
 Alpha  occ. eigenvalues --  -11.22527 -11.22329 -11.22318 -11.22137 -11.22047
 Alpha  occ. eigenvalues --  -11.21990 -11.21951 -11.21924 -11.21913 -11.21557
 Alpha  occ. eigenvalues --  -11.21510 -11.21457 -11.21441 -11.21412 -11.21393
 Alpha  occ. eigenvalues --  -11.21360 -11.21338 -11.21336 -11.21173 -11.21061
 Alpha  occ. eigenvalues --  -11.21030 -11.20926 -11.20893  -1.34656  -1.15864
 Alpha  occ. eigenvalues --   -1.13449  -1.09579  -1.07960  -1.06069  -1.05533
 Alpha  occ. eigenvalues --   -1.02655  -1.01292  -0.99557  -0.97707  -0.95819
 Alpha  occ. eigenvalues --   -0.92703  -0.92406  -0.91941  -0.90927  -0.90683
 Alpha  occ. eigenvalues --   -0.85960  -0.84391  -0.82561  -0.81770  -0.78792
 Alpha  occ. eigenvalues --   -0.76611  -0.76195  -0.74673  -0.73052  -0.71480
 Alpha  occ. eigenvalues --   -0.68985  -0.66873  -0.65019  -0.64292  -0.63890
 Alpha  occ. eigenvalues --   -0.63221  -0.62477  -0.62112  -0.61162  -0.60471
 Alpha  occ. eigenvalues --   -0.59507  -0.58865  -0.58555  -0.58212  -0.57552
 Alpha  occ. eigenvalues --   -0.56534  -0.56319  -0.55633  -0.55133  -0.54693
 Alpha  occ. eigenvalues --   -0.54514  -0.53653  -0.53273  -0.52881  -0.52550
 Alpha  occ. eigenvalues --   -0.52359  -0.51998  -0.51639  -0.51271  -0.51101
 Alpha  occ. eigenvalues --   -0.50351  -0.50182  -0.48509  -0.48228  -0.48127
 Alpha  occ. eigenvalues --   -0.47223  -0.47075  -0.46724  -0.46264  -0.45329
 Alpha  occ. eigenvalues --   -0.45051  -0.44715  -0.44523  -0.44093  -0.43597
 Alpha  occ. eigenvalues --   -0.43382  -0.42986  -0.42767  -0.42404  -0.41557
 Alpha  occ. eigenvalues --   -0.39788  -0.38513  -0.32781
 Alpha virt. eigenvalues --    0.18180   0.20753   0.21909   0.22392   0.22527
 Alpha virt. eigenvalues --    0.23324   0.23906   0.24527   0.24624   0.25613
 Alpha virt. eigenvalues --    0.25969   0.26584   0.27242   0.27631   0.28278

 Mulliken charges:
               1
     1  O   -0.765593
     2  H    0.433031
     3  C   -0.027347
     4  C   -0.158004
     5  H    0.150736
     6  C   -0.153676
     7  H    0.163609
     8  C   -0.154817
     9  H    0.154963
    10  C   -0.140845
    11  H    0.156648
    12  C   -0.298233
    13  H    0.150914
    14  H    0.163610
    15  C   -0.038287
    16  C   -0.316447
    17  H    0.165412
    18  H    0.158387
    19  C   -0.327806
    20  H    0.163989
    21  H    0.165937
    22  C   -0.335177
    23  H    0.161001
    24  H    0.166427
    25  C   -0.324453
    26  H    0.170209
    27  H    0.161196
    28  C   -0.147563
    29  H    0.157014
    30  C   -0.489818
    31  H    0.162385
    32  H    0.165059
    33  H    0.163947
    34  C    0.063496
    35  C   -0.326286
    36  H    0.160340
    37  H    0.169530
    38  C   -0.235047
    39  H    0.171964
    40  C   -0.480314
    41  H    0.162483
    42  H    0.168566
    43  H    0.165309
    44  C   -0.370717
    45  H    0.159886
    46  H    0.179310
    47  C   -0.327102
    48  H    0.171496
    49  H    0.178741
    50  C   -0.309321
    51  H    0.152753
    52  H    0.160227
    53  C    0.194457
    54  H    0.144541
    55  C   -0.485987
    56  H    0.157035
    57  H    0.157466
    58  H    0.162315
    59  C   -0.321438
    60  H    0.158816
    61  H    0.160963
    62  C   -0.300090
    63  H    0.150871
    64  H    0.151447
    65  C   -0.146088
    66  H    0.155376
    67  C   -0.476218
    68  H    0.156993
    69  H    0.158266
    70  H    0.155712
    71  C   -0.476194
    72  H    0.156418
    73  H    0.158513
    74  H    0.155105
 Sum of Mulliken charges =   0.00000

 Dipole moment (field-independent basis, Debye):
    X=              0.4508    Y=              0.1531    Z=              1.7023  Tot=              1.7676
 Quadrupole moment (field-independent basis, Debye-Ang):
   XX=           -171.5481   YY=           -181.6318   ZZ=           -201.7427
   XY=              0.5867   XZ=              3.3922   YZ=             -1.1690

 ESP charges:
               1
     1  O   -0.742549
     2  H    0.430471
     3  C    0.635877
     4  C   -0.031468
     5  H    0.010289
     6  C    0.007219
     7  H    0.027920
     8  C   -0.126685
     9  H    0.024335
    10  C    0.148456
    11  H   -0.104125
    12  C   -0.185773
    13  H    0.011159
    14  H    0.029684
    15  C    0.563523
    16  C   -0.249026
    17  H    0.058147
    18  H    0.059126
    19  C   -0.088996
    20  H    0.027259
    21  H    0.039954
    22  C   -0.067006
    23  H    0.016658
    24  H    0.040079
    25  C   -0.030622
    26  H    0.048156
    27  H    0.038506
    28  C    0.039201
    29  H    0.029919
    30  C   -0.620721
    31  H    0.117846
    32  H    0.131931
    33  H    0.118608
    34  C   -0.153480
    35  C   -0.314348
    36  H    0.061486
    37  H    0.071457
    38  C   -0.265448
    39  H    0.145370
    40  C   -0.454426
    41  H    0.086848
    42  H    0.116689
    43  H    0.094594
    44  C   -0.264989
    45  H    0.081152
    46  H    0.100208
    47  C   -0.039298
    48  H    0.053585
    49  H    0.051899
    50  C   -0.276091
    51  H    0.079519
    52  H    0.040785
    53  C    0.392653
    54  H   -0.013801
    55  C   -0.398192
    56  H    0.074161
    57  H    0.110789
    58  H    0.089267
    59  C    0.281137
    60  H   -0.018399
    61  H   -0.012195
    62  C   -0.346614
    63  H    0.059995
    64  H    0.053837
    65  C    0.468128
    66  H   -0.054364
    67  C   -0.414904
    68  H    0.087028
    69  H    0.089738
    70  H    0.086810
    71  C   -0.440169
    72  H    0.091791
    73  H    0.096040
    74  H    0.094402
 Sum of ESP charges =   0.00000

 Normal termination of Gaussian 09 at Tue Mar 21 12:49:15 2017.
