 Gaussian 09, Revision D.01,
 Gaussian 09:  EM64L-G09RevD.01 24-Apr-2013

 ----------------------------------------------------------------------
 #P HF/6-31G* SCF(Conver=6) NoSymm Test Pop=mk IOp(6/33=2) GFInput GFPr
 int
 ----------------------------------------------------------------------

 ----------------------------------------------
 MEP - Input generated by R.E.D.-III.x MOLECULE
 ----------------------------------------------
 Symbolic Z-matrix:
 Charge =  0 Multiplicity = 1

                          Input orientation:
 ---------------------------------------------------------------------
 Center     Atomic      Atomic             Coordinates (Angstroms)
 Number     Number       Type             X           Y           Z
 ---------------------------------------------------------------------
      1          8           0        0.423230   -3.354486    7.268017
      2          1           0        0.251951   -4.294826    7.125280
      3          6           0        1.510486    1.502389    0.000000
      4          6           0        1.103374    0.000000    0.000000
      5          1           0        0.000000    0.000000    0.000000
      6          6           0        1.510828   -0.792621    1.248841
      7          1           0        2.607154   -0.826398    1.317597
      8          6           0        0.942142   -0.104462    2.518706
      9          1           0       -0.152331   -0.220354    2.450087
     10          6           0        0.931094    1.913714   -1.397890
     11          1           0       -0.158030    1.851178   -1.268246
     12          6           0        0.840408    2.142746    1.231259
     13          1           0       -0.250657    2.103884    1.103872
     14          1           0        1.108474    3.201764    1.325650
     15          6           0        1.363652   -0.834831    3.842324
     16          6           0        1.538114   -0.511243   -1.385370
     17          1           0        0.962966   -1.385739   -1.705705
     18          1           0        2.592493   -0.814199   -1.372117
     19          6           0        1.228056    1.416120    2.535803
     20          1           0        2.290652    1.593786    2.731706
     21          1           0        0.686965    1.882626    3.366738
     22          6           0        1.320236    0.713568   -2.319698
     23          1           0        2.227558    0.929552   -2.892652
     24          1           0        0.530127    0.530013   -3.056166
     25          6           0        1.003220   -2.241477    1.169328
     26          1           0        1.597911   -2.809645    0.441673
     27          1           0       -0.026056   -2.249548    0.773485
     28          6           0        1.169430    3.297029   -2.069993
     29          1           0        0.651942    3.204317   -3.039227
     30          6           0        3.044484    1.684061    0.075721
     31          1           0        3.301340    2.735264    0.235622
     32          1           0        3.483316    1.118745    0.901606
     33          1           0        3.546491    1.358786   -0.839171
     34          6           0        1.202587   -2.353422    3.683852
     35          6           0        0.419480   -0.364605    4.992705
     36          1           0       -0.615966   -0.415220    4.628019
     37          1           0        0.617674    0.688572    5.219615
     38          6           0        1.027425   -2.948405    2.494683
     39          1           0        0.894046   -4.030519    2.468508
     40          6           0        2.836478   -0.525850    4.222513
     41          1           0        2.961713    0.520007    4.520046
     42          1           0        3.171475   -1.140513    5.061666
     43          1           0        3.511595   -0.727708    3.385155
     44          6           0        1.247559   -3.177620    4.957145
     45          1           0        1.031317   -4.227553    4.721080
     46          1           0        2.252375   -3.154081    5.402187
     47          6           0        0.520811   -1.181739    6.288977
     48          1           0        1.510771   -1.074201    6.749621
     49          1           0       -0.207207   -0.814101    7.021039
     50          6           0        0.502576    4.491552   -1.346949
     51          1           0        0.944731    4.615555   -0.349523
     52          1           0        0.770362    5.401700   -1.902821
     53          6           0        0.271163   -2.660562    6.023524
     54          1           0       -0.760442   -2.788670    5.655879
     55          6           0        2.628993    3.664852   -2.406349
     56          1           0        3.183458    3.996260   -1.523623
     57          1           0        2.642298    4.492037   -3.125165
     58          1           0        3.182510    2.835577   -2.856181
     59          6           0       -1.028892    4.444629   -1.228236
     60          1           0       -1.454610    4.264741   -2.224946
     61          1           0       -1.331973    3.596419   -0.604486
     62          6           0       -1.604582    5.743774   -0.640886
     63          1           0       -1.287944    6.585712   -1.273416
     64          1           0       -1.145946    5.916779    0.343540
     65          6           0       -3.141126    5.810467   -0.478427
     66          1           0       -3.355801    6.801497   -0.051786
     67          6           0       -3.679416    4.766570    0.514130
     68          1           0       -3.159066    4.825943    1.477337
     69          1           0       -4.747961    4.922084    0.701965
     70          1           0       -3.560767    3.746105    0.131927
     71          6           0       -3.883032    5.727846   -1.822837
     72          1           0       -3.509167    6.476017   -2.531759
     73          1           0       -4.956317    5.903644   -1.687251
     74          1           0       -3.770030    4.741346   -2.287096
 ---------------------------------------------------------------------

 SCF Done:  E(RHF) =  -1124.07277381     A.U. after    9 cycles

 Alpha  occ. eigenvalues --  -20.55360 -11.27437 -11.23915 -11.22711 -11.22678
 Alpha  occ. eigenvalues --  -11.22547 -11.22523 -11.22364 -11.22143 -11.22057
 Alpha  occ. eigenvalues --  -11.22007 -11.21999 -11.21939 -11.21922 -11.21576
 Alpha  occ. eigenvalues --  -11.21536 -11.21510 -11.21451 -11.21441 -11.21404
 Alpha  occ. eigenvalues --  -11.21401 -11.21384 -11.21347 -11.21182 -11.21072
 Alpha  occ. eigenvalues --  -11.21044 -11.20845 -11.20783  -1.34662  -1.15852
 Alpha  occ. eigenvalues --   -1.13405  -1.09515  -1.07947  -1.06079  -1.05584
 Alpha  occ. eigenvalues --   -1.02651  -1.01373  -0.99671  -0.97703  -0.95885
 Alpha  occ. eigenvalues --   -0.92419  -0.92322  -0.92231  -0.91453  -0.90410
 Alpha  occ. eigenvalues --   -0.85968  -0.83675  -0.82560  -0.81811  -0.79171
 Alpha  occ. eigenvalues --   -0.76734  -0.76276  -0.74481  -0.73518  -0.71369
 Alpha  occ. eigenvalues --   -0.68962  -0.66829  -0.64617  -0.64404  -0.64091
 Alpha  occ. eigenvalues --   -0.63272  -0.62551  -0.62240  -0.60802  -0.59927
 Alpha  occ. eigenvalues --   -0.59707  -0.58880  -0.58714  -0.58201  -0.57366
 Alpha  occ. eigenvalues --   -0.56867  -0.56343  -0.55702  -0.55386  -0.54651
 Alpha  occ. eigenvalues --   -0.54548  -0.53754  -0.53581  -0.52909  -0.52531
 Alpha  occ. eigenvalues --   -0.52430  -0.51699  -0.51381  -0.50944  -0.50594
 Alpha  occ. eigenvalues --   -0.50239  -0.50094  -0.48944  -0.48472  -0.47873
 Alpha  occ. eigenvalues --   -0.47564  -0.47232  -0.46816  -0.46163  -0.45405
 Alpha  occ. eigenvalues --   -0.45213  -0.44793  -0.44588  -0.44278  -0.43721
 Alpha  occ. eigenvalues --   -0.43334  -0.42921  -0.42620  -0.41979  -0.41489
 Alpha  occ. eigenvalues --   -0.39774  -0.38474  -0.32791
 Alpha virt. eigenvalues --    0.18162   0.20397   0.21652   0.22352   0.22516
 Alpha virt. eigenvalues --    0.23218   0.24025   0.24283   0.24660   0.25116
 Alpha virt. eigenvalues --    0.25976   0.26587   0.27394   0.27806   0.27884

 Mulliken charges:
               1
     1  O   -0.765592
     2  H    0.433050
     3  C   -0.022028
     4  C   -0.160877
     5  H    0.150721
     6  C   -0.154202
     7  H    0.163827
     8  C   -0.154719
     9  H    0.154880
    10  C   -0.154833
    11  H    0.160006
    12  C   -0.302213
    13  H    0.152506
    14  H    0.161296
    15  C   -0.038525
    16  C   -0.316201
    17  H    0.165231
    18  H    0.158702
    19  C   -0.327626
    20  H    0.165393
    21  H    0.165869
    22  C   -0.327806
    23  H    0.161084
    24  H    0.163499
    25  C   -0.324006
    26  H    0.170357
    27  H    0.161124
    28  C   -0.141598
    29  H    0.151344
    30  C   -0.486769
    31  H    0.161378
    32  H    0.163847
    33  H    0.165144
    34  C    0.063526
    35  C   -0.326316
    36  H    0.160402
    37  H    0.169426
    38  C   -0.235098
    39  H    0.172046
    40  C   -0.479995
    41  H    0.162523
    42  H    0.168557
    43  H    0.165300
    44  C   -0.370727
    45  H    0.159932
    46  H    0.179319
    47  C   -0.327081
    48  H    0.171507
    49  H    0.178769
    50  C   -0.300488
    51  H    0.153975
    52  H    0.152696
    53  C    0.194455
    54  H    0.144569
    55  C   -0.482569
    56  H    0.157406
    57  H    0.158261
    58  H    0.160006
    59  C   -0.319232
    60  H    0.153971
    61  H    0.162368
    62  C   -0.300807
    63  H    0.151510
    64  H    0.151370
    65  C   -0.146375
    66  H    0.155663
    67  C   -0.476409
    68  H    0.157062
    69  H    0.158774
    70  H    0.154520
    71  C   -0.476086
    72  H    0.156924
    73  H    0.158286
    74  H    0.155799
 Sum of Mulliken charges =   0.00000

 Dipole moment (field-independent basis, Debye):
    X=             -0.4034    Y=             -0.3386    Z=             -1.6059  Tot=              1.6901
 Quadrupole moment (field-independent basis, Debye-Ang):
   XX=           -182.1011   YY=           -172.9069   ZZ=           -202.0954
   XY=              1.3615   XZ=             -2.6549   YZ=              1.3833

 ESP charges:
               1
     1  O   -0.742616
     2  H    0.431727
     3  C    0.724227
     4  C    0.040365
     5  H   -0.021337
     6  C   -0.051963
     7  H    0.043515
     8  C   -0.075458
     9  H    0.025084
    10  C   -0.105117
    11  H   -0.042440
    12  C   -0.198065
    13  H    0.039906
    14  H    0.041342
    15  C    0.535128
    16  C   -0.055021
    17  H    0.014317
    18  H    0.000360
    19  C   -0.210858
    20  H    0.058355
    21  H    0.068679
    22  C   -0.168019
    23  H    0.039324
    24  H    0.049860
    25  C   -0.102421
    26  H    0.060873
    27  H    0.053580
    28  C    0.251761
    29  H   -0.017879
    30  C   -0.609102
    31  H    0.115340
    32  H    0.111887
    33  H    0.131821
    34  C   -0.150157
    35  C   -0.362324
    36  H    0.077739
    37  H    0.091662
    38  C   -0.214832
    39  H    0.137226
    40  C   -0.487379
    41  H    0.101483
    42  H    0.127646
    43  H    0.107911
    44  C   -0.290844
    45  H    0.086943
    46  H    0.109344
    47  C   -0.033799
    48  H    0.057686
    49  H    0.053453
    50  C   -0.217612
    51  H    0.028397
    52  H    0.064488
    53  C    0.394437
    54  H   -0.010130
    55  C   -0.437698
    56  H    0.089337
    57  H    0.096141
    58  H    0.104993
    59  C    0.203792
    60  H   -0.010571
    61  H   -0.036655
    62  C   -0.426141
    63  H    0.082242
    64  H    0.085240
    65  C    0.506309
    66  H   -0.049988
    67  C   -0.484525
    68  H    0.105571
    69  H    0.105831
    70  H    0.114962
    71  C   -0.471130
    72  H    0.104169
    73  H    0.101598
    74  H    0.108033
 Sum of ESP charges =   0.00000

 Normal termination of Gaussian 09 at Tue Mar 21 12:39:14 2017.
