 Gaussian 09, Revision D.01,
 Gaussian 09:  EM64L-G09RevD.01 24-Apr-2013

 ----------------------------------------------------------------------
 #P HF/6-31G* SCF(Conver=6) NoSymm Test Pop=mk IOp(6/33=2) GFInput GFPr
 int
 ----------------------------------------------------------------------

 ----------------------------------------------
 MEP - Input generated by R.E.D.-III.x MOLECULE
 ----------------------------------------------
 Symbolic Z-matrix:
 Charge =  0 Multiplicity = 1

                          Input orientation:
 ---------------------------------------------------------------------
 Center     Atomic      Atomic             Coordinates (Angstroms)
 Number     Number       Type             X           Y           Z
 ---------------------------------------------------------------------
      1          8           0        4.205290    6.555176    4.124428
      2          1           0        4.987140    6.902719    3.675131
      3          6           0        0.000000    0.000000    0.000000
      4          6           0        1.345555    0.619310   -0.472021
      5          1           0        2.128011    0.000000    0.000000
      6          6           0        1.612790    2.054559    0.000000
      7          1           0        0.850126    2.722514   -0.424860
      8          6           0        1.542554    2.122362    1.548068
      9          1           0        2.404502    1.536152    1.907702
     10          6           0        0.090498   -1.406810   -0.687989
     11          1           0        0.825804   -1.984724   -0.105366
     12          6           0        0.030828    0.015145    1.542389
     13          1           0        0.833839   -0.654311    1.883600
     14          1           0       -0.898952   -0.371708    1.971336
     15          6           0        1.757064    3.575078    2.101277
     16          6           0        1.397811    0.310588   -1.975527
     17          1           0        2.419409    0.310513   -2.368514
     18          1           0        0.840502    1.064579   -2.545162
     19          6           0        0.272949    1.433309    2.099566
     20          1           0       -0.607448    2.047663    1.882807
     21          1           0        0.332849    1.369784    3.191952
     22          6           0        0.726237   -1.085726   -2.085691
     23          1           0       -0.043586   -1.091345   -2.866383
     24          1           0        1.456704   -1.849069   -2.369456
     25          6           0        2.987841    2.544687   -0.482166
     26          1           0        2.956264    2.757407   -1.559055
     27          1           0        3.727407    1.734715   -0.367356
     28          6           0       -1.180164   -2.287521   -0.806864
     29          1           0       -1.892880   -1.746976   -1.447210
     30          6           0       -1.225607    0.779275   -0.530937
     31          1           0       -2.154856    0.355961   -0.135875
     32          1           0       -1.204159    1.833070   -0.242598
     33          1           0       -1.291942    0.745166   -1.622624
     34          6           0        2.936408    4.246079    1.383070
     35          6           0        2.102133    3.482952    3.620500
     36          1           0        2.874130    2.711644    3.750227
     37          1           0        1.222122    3.137595    4.173921
     38          6           0        3.472467    3.762063    0.252959
     39          1           0        4.326130    4.282367   -0.182938
     40          6           0        0.491550    4.453479    1.910168
     41          1           0       -0.330129    4.116036    2.549730
     42          1           0        0.686623    5.498542    2.163281
     43          1           0        0.148814    4.432083    0.871021
     44          6           0        3.487852    5.509834    2.016650
     45          1           0        4.378605    5.836949    1.464896
     46          1           0        2.757798    6.329123    1.952567
     47          6           0        2.606835    4.789336    4.250417
     48          1           0        1.827720    5.561760    4.240281
     49          1           0        2.868468    4.621645    5.301370
     50          6           0       -0.853715   -3.640222   -1.512157
     51          1           0        0.132833   -3.584169   -1.983392
     52          1           0       -0.766495   -4.428672   -0.752357
     53          6           0        3.822639    5.321751    3.503384
     54          1           0        4.645862    4.594022    3.595484
     55          6           0       -1.867691   -2.549115    0.545934
     56          1           0       -1.159234   -2.974634    1.267521
     57          1           0       -2.688901   -3.263219    0.434593
     58          1           0       -2.286084   -1.640299    0.985486
     59          6           0       -1.848619   -4.072911   -2.609396
     60          1           0       -1.907998   -3.265246   -3.352168
     61          1           0       -1.423418   -4.932147   -3.143911
     62          6           0       -3.282252   -4.414946   -2.162252
     63          1           0       -3.896077   -4.565957   -3.062705
     64          1           0       -3.719084   -3.546895   -1.650364
     65          6           0       -3.447551   -5.657922   -1.261202
     66          1           0       -2.810242   -5.531735   -0.374359
     67          6           0       -3.015813   -6.954689   -1.965182
     68          1           0       -1.961103   -6.935950   -2.257500
     69          1           0       -3.159739   -7.821301   -1.309933
     70          1           0       -3.611317   -7.121629   -2.872269
     71          6           0       -4.901046   -5.770590   -0.773542
     72          1           0       -5.211106   -4.872289   -0.227223
     73          1           0       -5.032502   -6.630585   -0.106978
     74          1           0       -5.588059   -5.898141   -1.620041
 ---------------------------------------------------------------------

 SCF Done:  E(RHF) =  -1124.07375060     A.U. after    9 cycles

 Alpha  occ. eigenvalues --  -20.55358 -11.27435 -11.23900 -11.22707 -11.22669
 Alpha  occ. eigenvalues --  -11.22435 -11.22332 -11.22318 -11.22142 -11.22084
 Alpha  occ. eigenvalues --  -11.22055 -11.21999 -11.21929 -11.21921 -11.21660
 Alpha  occ. eigenvalues --  -11.21574 -11.21486 -11.21467 -11.21454 -11.21398
 Alpha  occ. eigenvalues --  -11.21355 -11.21345 -11.21340 -11.21178 -11.21071
 Alpha  occ. eigenvalues --  -11.21035 -11.20937 -11.20892  -1.34661  -1.15864
 Alpha  occ. eigenvalues --   -1.13437  -1.09623  -1.07932  -1.06036  -1.05438
 Alpha  occ. eigenvalues --   -1.02667  -1.01313  -0.99586  -0.97734  -0.95812
 Alpha  occ. eigenvalues --   -0.92773  -0.92404  -0.91979  -0.91259  -0.90661
 Alpha  occ. eigenvalues --   -0.85965  -0.83595  -0.82075  -0.81737  -0.79297
 Alpha  occ. eigenvalues --   -0.76708  -0.76411  -0.74822  -0.73504  -0.71853
 Alpha  occ. eigenvalues --   -0.68988  -0.66836  -0.64986  -0.64332  -0.63883
 Alpha  occ. eigenvalues --   -0.63259  -0.62290  -0.61634  -0.60978  -0.60552
 Alpha  occ. eigenvalues --   -0.59504  -0.59013  -0.58550  -0.57994  -0.57068
 Alpha  occ. eigenvalues --   -0.56773  -0.56018  -0.55636  -0.55163  -0.54840
 Alpha  occ. eigenvalues --   -0.54259  -0.54040  -0.53519  -0.53041  -0.52937
 Alpha  occ. eigenvalues --   -0.52491  -0.52312  -0.51412  -0.51216  -0.50710
 Alpha  occ. eigenvalues --   -0.50263  -0.50061  -0.49019  -0.48357  -0.47839
 Alpha  occ. eigenvalues --   -0.47317  -0.46932  -0.46902  -0.46250  -0.45403
 Alpha  occ. eigenvalues --   -0.45149  -0.44509  -0.44185  -0.43988  -0.43571
 Alpha  occ. eigenvalues --   -0.43224  -0.43099  -0.42915  -0.42630  -0.41638
 Alpha  occ. eigenvalues --   -0.39791  -0.38433  -0.32787
 Alpha virt. eigenvalues --    0.18176   0.20961   0.21994   0.22233   0.22561
 Alpha virt. eigenvalues --    0.23132   0.24134   0.24456   0.24790   0.25842
 Alpha virt. eigenvalues --    0.26112   0.26559   0.26772   0.27521   0.27656

 Mulliken charges:
               1
     1  O   -0.765607
     2  H    0.433033
     3  C   -0.029629
     4  C   -0.158086
     5  H    0.151024
     6  C   -0.153768
     7  H    0.163583
     8  C   -0.154791
     9  H    0.155014
    10  C   -0.142511
    11  H    0.153044
    12  C   -0.298276
    13  H    0.151137
    14  H    0.164094
    15  C   -0.038349
    16  C   -0.316745
    17  H    0.165584
    18  H    0.158469
    19  C   -0.327740
    20  H    0.163851
    21  H    0.165980
    22  C   -0.333835
    23  H    0.161039
    24  H    0.166465
    25  C   -0.324483
    26  H    0.170155
    27  H    0.161209
    28  C   -0.137820
    29  H    0.157311
    30  C   -0.489607
    31  H    0.162757
    32  H    0.164929
    33  H    0.163905
    34  C    0.063503
    35  C   -0.326332
    36  H    0.160347
    37  H    0.169552
    38  C   -0.235011
    39  H    0.171955
    40  C   -0.480172
    41  H    0.162464
    42  H    0.168532
    43  H    0.165274
    44  C   -0.370702
    45  H    0.159889
    46  H    0.179315
    47  C   -0.327101
    48  H    0.171480
    49  H    0.178757
    50  C   -0.324371
    51  H    0.166137
    52  H    0.158390
    53  C    0.194471
    54  H    0.144549
    55  C   -0.490829
    56  H    0.154151
    57  H    0.166739
    58  H    0.160148
    59  C   -0.312284
    60  H    0.154842
    61  H    0.156911
    62  C   -0.305367
    63  H    0.151501
    64  H    0.156379
    65  C   -0.152805
    66  H    0.155948
    67  C   -0.475740
    68  H    0.161786
    69  H    0.158406
    70  H    0.152018
    71  C   -0.472745
    72  H    0.157360
    73  H    0.158400
    74  H    0.152921
 Sum of Mulliken charges =   0.00000

 Dipole moment (field-independent basis, Debye):
    X=              0.6145    Y=             -0.9114    Z=             -1.3491  Tot=              1.7402
 Quadrupole moment (field-independent basis, Debye-Ang):
   XX=           -174.2238   YY=           -191.2236   ZZ=           -190.8753
   XY=              0.8420   XZ=             -4.2895   YZ=            -12.1333

 ESP charges:
               1
     1  O   -0.752507
     2  H    0.430984
     3  C    0.547187
     4  C   -0.033946
     5  H    0.016048
     6  C    0.015563
     7  H    0.021463
     8  C   -0.011165
     9  H   -0.005632
    10  C   -0.061574
    11  H   -0.018450
    12  C   -0.203318
    13  H    0.010073
    14  H    0.038450
    15  C    0.492551
    16  C   -0.138991
    17  H    0.040270
    18  H    0.039144
    19  C   -0.045269
    20  H    0.019917
    21  H    0.024901
    22  C   -0.173780
    23  H    0.045944
    24  H    0.070593
    25  C   -0.039087
    26  H    0.043463
    27  H    0.034093
    28  C    0.297957
    29  H   -0.005310
    30  C   -0.603278
    31  H    0.115056
    32  H    0.131056
    33  H    0.132300
    34  C   -0.146570
    35  C   -0.323286
    36  H    0.062884
    37  H    0.074590
    38  C   -0.251924
    39  H    0.141908
    40  C   -0.482835
    41  H    0.091893
    42  H    0.130686
    43  H    0.101873
    44  C   -0.271378
    45  H    0.081589
    46  H    0.098248
    47  C   -0.020621
    48  H    0.050890
    49  H    0.045670
    50  C   -0.170818
    51  H    0.031782
    52  H    0.048096
    53  C    0.422868
    54  H   -0.024254
    55  C   -0.477911
    56  H    0.094085
    57  H    0.113370
    58  H    0.105324
    59  C   -0.073754
    60  H    0.026993
    61  H    0.036045
    62  C   -0.150274
    63  H    0.032719
    64  H    0.025670
    65  C    0.498369
    66  H   -0.052633
    67  C   -0.486552
    68  H    0.108494
    69  H    0.103021
    70  H    0.109290
    71  C   -0.499083
    72  H    0.096103
    73  H    0.113885
    74  H    0.110842
 Sum of ESP charges =   0.00000

 Normal termination of Gaussian 09 at Tue Mar 21 12:12:20 2017.
