 Gaussian 09, Revision D.01,
 Gaussian 09:  EM64L-G09RevD.01 24-Apr-2013

 ----------------------------------------------------------------------
 #P HF/6-31G* SCF(Conver=6) NoSymm Test Pop=mk IOp(6/33=2) GFInput GFPr
 int
 ----------------------------------------------------------------------

 ----------------------------------------------
 MEP - Input generated by R.E.D.-III.x MOLECULE
 ----------------------------------------------
 Symbolic Z-matrix:
 Charge =  0 Multiplicity = 1

                          Input orientation:
 ---------------------------------------------------------------------
 Center     Atomic      Atomic             Coordinates (Angstroms)
 Number     Number       Type             X           Y           Z
 ---------------------------------------------------------------------
      1          8           0        4.972180   -0.220877   -7.268017
      2          1           0        5.924585   -0.301501   -7.125280
      3          6           0        0.000000    0.000000    0.000000
      4          6           0        1.556571    0.000000    0.000000
      5          1           0        1.845152    1.064967    0.000000
      6          6           0        2.215034   -0.600577   -1.248841
      7          1           0        1.960899   -1.667576   -1.317597
      8          6           0        1.699566    0.128298   -2.518706
      9          1           0        2.097677    1.154363   -2.450087
     10          6           0       -0.245471    0.666804    1.397890
     11          1           0        0.099743    1.701661    1.268246
     12          6           0       -0.442812    0.814235   -1.231259
     13          1           0       -0.119941    1.857157   -1.103872
     14          1           0       -1.535079    0.832480   -1.325650
     15          6           0        2.294268   -0.469563   -3.842324
     16          6           0        1.936314   -0.553320    1.385370
     17          1           0        2.930797   -0.226911    1.705705
     18          1           0        1.952958   -1.650234    1.372117
     19          6           0        0.157134    0.250036   -2.535803
     20          1           0       -0.292264   -0.729105   -2.731706
     21          1           0       -0.151615    0.894304   -3.366738
     22          6           0        0.811122   -0.022684    2.319698
     23          1           0        0.365351   -0.841934    2.892652
     24          1           0        1.194937    0.691915    3.056166
     25          6           0        3.746220   -0.489578   -1.169328
     26          1           0        4.139072   -1.212170   -0.441673
     27          1           0        4.023212    0.501759   -0.773485
     28          6           0       -1.642969    0.798563    2.069993
     29          1           0       -1.418139    1.273789    3.039227
     30          6           0       -0.576557   -1.433086   -0.075721
     31          1           0       -1.658348   -1.406066   -0.235622
     32          1           0       -0.145693   -2.004499   -0.901606
     33          1           0       -0.393901   -2.002693    0.839171
     34          6           0        3.802125   -0.711283   -3.683852
     35          6           0        2.087353    0.564728   -4.992705
     36          1           0        2.407021    1.550894   -4.628019
     37          1           0        1.019000    0.648886   -5.219615
     38          6           0        4.422211   -0.697833   -2.494683
     39          1           0        5.501542   -0.852117   -2.468508
     40          6           0        1.610833   -1.810310   -4.222513
     41          1           0        0.568626   -1.657648   -4.520046
     42          1           0        2.116484   -2.294409   -5.061666
     43          1           0        1.629092   -2.514723   -3.385155
     44          6           0        4.585871   -0.970254   -4.957145
     45          1           0        5.655815   -1.036144   -4.721080
     46          1           0        4.300348   -1.933938   -5.402187
     47          6           0        2.849541    0.253208   -6.288977
     48          1           0        2.486828   -0.674168   -6.749621
     49          1           0        2.685109    1.052038   -7.021039
     50          6           0       -2.621501    1.754625    1.346949
     51          1           0       -2.856832    1.360293    0.349523
     52          1           0       -3.570006    1.734203    1.902821
     53          6           0        4.342182    0.107388   -6.023524
     54          1           0        4.735642    1.069578   -5.655879
     55          6           0       -2.379730   -0.513993    2.406349
     56          1           0       -2.844620   -0.962481    1.523623
     57          1           0       -3.181602   -0.310490    3.125165
     58          1           0       -1.724090   -1.265136    2.856181
     59          6           0       -2.175665    3.220512    1.228236
     60          1           0       -1.890695    3.584363    2.224946
     61          1           0       -1.277711    3.291199    0.604486
     62          6           0       -3.279020    4.115948    0.640886
     63          1           0       -4.174467    4.030535    1.273416
     64          1           0       -3.565957    3.718524   -0.343540
     65          6           0       -2.941518    5.616450    0.478427
     66          1           0       -3.841904    6.082850    0.051786
     67          6           0       -1.793170    5.862978   -0.514130
     68          1           0       -1.986571    5.376268   -1.477337
     69          1           0       -1.663799    6.935001   -0.701965
     70          1           0       -0.839259    5.481562   -0.131927
     71          6           0       -2.667732    6.310922    1.822837
     72          1           0       -3.487642    6.145750    2.531759
     73          1           0       -2.556698    7.392827    1.687251
     74          1           0       -1.745125    5.943840    2.287096
 ---------------------------------------------------------------------

 SCF Done:  E(RHF) =  -1124.07277380     A.U. after    9 cycles

 Alpha  occ. eigenvalues --  -20.55360 -11.27437 -11.23915 -11.22711 -11.22678
 Alpha  occ. eigenvalues --  -11.22547 -11.22523 -11.22364 -11.22143 -11.22057
 Alpha  occ. eigenvalues --  -11.22007 -11.21999 -11.21939 -11.21922 -11.21576
 Alpha  occ. eigenvalues --  -11.21536 -11.21510 -11.21451 -11.21441 -11.21404
 Alpha  occ. eigenvalues --  -11.21401 -11.21384 -11.21347 -11.21182 -11.21072
 Alpha  occ. eigenvalues --  -11.21044 -11.20845 -11.20783  -1.34662  -1.15852
 Alpha  occ. eigenvalues --   -1.13405  -1.09515  -1.07947  -1.06079  -1.05584
 Alpha  occ. eigenvalues --   -1.02651  -1.01373  -0.99671  -0.97703  -0.95885
 Alpha  occ. eigenvalues --   -0.92419  -0.92322  -0.92231  -0.91453  -0.90410
 Alpha  occ. eigenvalues --   -0.85968  -0.83675  -0.82560  -0.81811  -0.79171
 Alpha  occ. eigenvalues --   -0.76734  -0.76276  -0.74481  -0.73518  -0.71369
 Alpha  occ. eigenvalues --   -0.68962  -0.66829  -0.64617  -0.64404  -0.64091
 Alpha  occ. eigenvalues --   -0.63272  -0.62551  -0.62240  -0.60802  -0.59927
 Alpha  occ. eigenvalues --   -0.59707  -0.58880  -0.58714  -0.58201  -0.57366
 Alpha  occ. eigenvalues --   -0.56867  -0.56343  -0.55702  -0.55386  -0.54651
 Alpha  occ. eigenvalues --   -0.54548  -0.53754  -0.53581  -0.52909  -0.52531
 Alpha  occ. eigenvalues --   -0.52430  -0.51699  -0.51381  -0.50944  -0.50594
 Alpha  occ. eigenvalues --   -0.50239  -0.50094  -0.48944  -0.48472  -0.47873
 Alpha  occ. eigenvalues --   -0.47564  -0.47232  -0.46816  -0.46163  -0.45405
 Alpha  occ. eigenvalues --   -0.45213  -0.44793  -0.44588  -0.44278  -0.43721
 Alpha  occ. eigenvalues --   -0.43334  -0.42921  -0.42620  -0.41979  -0.41489
 Alpha  occ. eigenvalues --   -0.39774  -0.38474  -0.32791
 Alpha virt. eigenvalues --    0.18162   0.20397   0.21652   0.22352   0.22516
 Alpha virt. eigenvalues --    0.23218   0.24025   0.24283   0.24660   0.25116
 Alpha virt. eigenvalues --    0.25976   0.26587   0.27394   0.27806   0.27884

 Mulliken charges:
               1
     1  O   -0.765592
     2  H    0.433050
     3  C   -0.022028
     4  C   -0.160877
     5  H    0.150721
     6  C   -0.154202
     7  H    0.163827
     8  C   -0.154719
     9  H    0.154880
    10  C   -0.154834
    11  H    0.160006
    12  C   -0.302213
    13  H    0.152506
    14  H    0.161296
    15  C   -0.038526
    16  C   -0.316201
    17  H    0.165231
    18  H    0.158702
    19  C   -0.327627
    20  H    0.165393
    21  H    0.165869
    22  C   -0.327806
    23  H    0.161084
    24  H    0.163499
    25  C   -0.324006
    26  H    0.170357
    27  H    0.161124
    28  C   -0.141598
    29  H    0.151345
    30  C   -0.486769
    31  H    0.161377
    32  H    0.163847
    33  H    0.165144
    34  C    0.063526
    35  C   -0.326316
    36  H    0.160402
    37  H    0.169426
    38  C   -0.235098
    39  H    0.172046
    40  C   -0.479995
    41  H    0.162523
    42  H    0.168557
    43  H    0.165301
    44  C   -0.370727
    45  H    0.159932
    46  H    0.179319
    47  C   -0.327081
    48  H    0.171507
    49  H    0.178769
    50  C   -0.300488
    51  H    0.153976
    52  H    0.152696
    53  C    0.194455
    54  H    0.144569
    55  C   -0.482569
    56  H    0.157406
    57  H    0.158261
    58  H    0.160006
    59  C   -0.319232
    60  H    0.153970
    61  H    0.162368
    62  C   -0.300807
    63  H    0.151510
    64  H    0.151370
    65  C   -0.146376
    66  H    0.155663
    67  C   -0.476409
    68  H    0.157062
    69  H    0.158774
    70  H    0.154520
    71  C   -0.476086
    72  H    0.156924
    73  H    0.158286
    74  H    0.155799
 Sum of Mulliken charges =   0.00000

 Dipole moment (field-independent basis, Debye):
    X=              0.4323    Y=              0.3008    Z=              1.6059  Tot=              1.6901
 Quadrupole moment (field-independent basis, Debye-Ang):
   XX=           -171.2531   YY=           -181.5190   ZZ=           -202.0954
   XY=             -0.1304   XZ=              3.6040   YZ=             -1.2140

 ESP charges:
               1
     1  O   -0.743292
     2  H    0.431495
     3  C    0.762325
     4  C   -0.084628
     5  H    0.004853
     6  C   -0.036768
     7  H    0.040265
     8  C   -0.112700
     9  H    0.032107
    10  C   -0.018218
    11  H   -0.047174
    12  C   -0.183915
    13  H    0.047197
    14  H    0.036377
    15  C    0.586749
    16  C    0.044062
    17  H    0.002906
    18  H   -0.010061
    19  C   -0.256806
    20  H    0.072964
    21  H    0.082290
    22  C   -0.308559
    23  H    0.071024
    24  H    0.076925
    25  C   -0.011942
    26  H    0.036937
    27  H    0.034738
    28  C    0.227588
    29  H    0.001973
    30  C   -0.637797
    31  H    0.117372
    32  H    0.123826
    33  H    0.138376
    34  C   -0.156274
    35  C   -0.358654
    36  H    0.076094
    37  H    0.085175
    38  C   -0.257602
    39  H    0.143179
    40  C   -0.492279
    41  H    0.099875
    42  H    0.126357
    43  H    0.106488
    44  C   -0.265440
    45  H    0.081532
    46  H    0.101181
    47  C   -0.038143
    48  H    0.056931
    49  H    0.055528
    50  C   -0.274109
    51  H    0.041624
    52  H    0.073238
    53  C    0.390445
    54  H   -0.012629
    55  C   -0.526236
    56  H    0.116546
    57  H    0.122504
    58  H    0.126918
    59  C    0.276429
    60  H   -0.035887
    61  H   -0.077111
    62  C   -0.325854
    63  H    0.049545
    64  H    0.053185
    65  C    0.484929
    66  H   -0.056715
    67  C   -0.452267
    68  H    0.095258
    69  H    0.098294
    70  H    0.104241
    71  C   -0.449708
    72  H    0.096112
    73  H    0.096700
    74  H    0.100108
 Sum of ESP charges =   0.00000

 Normal termination of Gaussian 09 at Tue Mar 21 12:38:19 2017.
