 Gaussian 09, Revision D.01,
 Gaussian 09:  EM64L-G09RevD.01 24-Apr-2013

 ----------------------------------------------------------------------
 #P HF/6-31G* SCF(Conver=6) NoSymm Test Pop=mk IOp(6/33=2) GFInput GFPr
 int
 ----------------------------------------------------------------------

 ----------------------------------------------
 MEP - Input generated by R.E.D.-III.x MOLECULE
 ----------------------------------------------
 Symbolic Z-matrix:
 Charge =  0 Multiplicity = 1

                          Input orientation:
 ---------------------------------------------------------------------
 Center     Atomic      Atomic             Coordinates (Angstroms)
 Number     Number       Type             X           Y           Z
 ---------------------------------------------------------------------
      1          8           0        0.439713   -3.394482    7.251064
      2          1           0        0.275466   -4.335387    7.103899
      3          6           0        1.507471    1.501488    0.000000
      4          6           0        1.103902    0.000000    0.000000
      5          1           0        0.000000    0.000000    0.000000
      6          6           0        1.517377   -0.794969    1.245707
      7          1           0        2.614335   -0.814615    1.314573
      8          6           0        0.940030   -0.120188    2.517197
      9          1           0       -0.153272   -0.244962    2.445890
     10          6           0        0.951401    1.933965   -1.402082
     11          1           0       -0.143404    1.988738   -1.291183
     12          6           0        0.830812    2.131857    1.235250
     13          1           0       -0.259490    2.088037    1.098364
     14          1           0        1.087291    3.190307    1.344112
     15          6           0        1.365611   -0.852625    3.838218
     16          6           0        1.535771   -0.509986   -1.382470
     17          1           0        0.975827   -1.396777   -1.695753
     18          1           0        2.596120   -0.791564   -1.377672
     19          6           0        1.215011    1.401106    2.538606
     20          1           0        2.275681    1.584457    2.740676
     21          1           0        0.667461    1.863340    3.367786
     22          6           0        1.282826    0.704655   -2.316918
     23          1           0        2.165603    0.914377   -2.932787
     24          1           0        0.463112    0.502875   -3.012845
     25          6           0        1.026066   -2.249003    1.157683
     26          1           0        1.629679   -2.807840    0.430171
     27          1           0       -0.001319   -2.265942    0.757172
     28          6           0        1.403444    3.279635   -2.027462
     29          1           0        2.487958    3.218632   -2.206333
     30          6           0        3.039629    1.702014    0.052901
     31          1           0        3.288397    2.767010    0.106941
     32          1           0        3.491879    1.220837    0.923546
     33          1           0        3.536853    1.297361   -0.833932
     34          6           0        1.217442   -2.371626    3.672562
     35          6           0        0.415891   -0.394857    4.988878
     36          1           0       -0.618554   -0.452471    4.622410
     37          1           0        0.605156    0.659013    5.220177
     38          6           0        1.051461   -2.962124    2.479846
     39          1           0        0.927320   -4.045199    2.447771
     40          6           0        2.835370   -0.533349    4.222075
     41          1           0        2.951425    0.511926    4.525368
     42          1           0        3.174556   -1.149662    5.058339
     43          1           0        3.513096   -0.725107    3.384420
     44          6           0        1.265807   -3.201216    4.942241
     45          1           0        1.057662   -4.251638    4.701051
     46          1           0        2.269669   -3.172435    5.389136
     47          6           0        0.522059   -1.216646    6.281757
     48          1           0        1.510729   -1.103524    6.743800
     49          1           0       -0.209497   -0.857870    7.014681
     50          6           0        0.725444    3.484126   -3.405321
     51          1           0        0.819065    2.565182   -3.995120
     52          1           0       -0.353875    3.635082   -3.248523
     53          6           0        0.284021   -2.696163    6.009458
     54          1           0       -0.746117   -2.830423    5.639913
     55          6           0        1.139720    4.491446   -1.116322
     56          1           0        0.079792    4.548858   -0.837950
     57          1           0        1.401469    5.428162   -1.617182
     58          1           0        1.724111    4.450165   -0.194637
     59          6           0        1.282035    4.640490   -4.252711
     60          1           0        1.125553    5.595355   -3.738427
     61          1           0        2.369054    4.515028   -4.350467
     62          6           0        0.636102    4.699498   -5.646777
     63          1           0       -0.453622    4.783739   -5.524954
     64          1           0        0.809669    3.740222   -6.155584
     65          6           0        1.108497    5.836960   -6.582168
     66          1           0        0.548143    5.707484   -7.520013
     67          6           0        2.602514    5.734615   -6.931369
     68          1           0        2.853341    4.742838   -7.325881
     69          1           0        2.876996    6.475209   -7.691247
     70          1           0        3.235659    5.915826   -6.055150
     71          6           0        0.762491    7.233961   -6.040402
     72          1           0       -0.303359    7.314797   -5.796457
     73          1           0        0.994825    8.007591   -6.781201
     74          1           0        1.331966    7.469397   -5.133908
 ---------------------------------------------------------------------

 SCF Done:  E(RHF) =  -1124.07889829     A.U. after    9 cycles

 Alpha  occ. eigenvalues --  -20.55350 -11.27427 -11.23886 -11.22695 -11.22667
 Alpha  occ. eigenvalues --  -11.22521 -11.22342 -11.22301 -11.22133 -11.22055
 Alpha  occ. eigenvalues --  -11.22039 -11.21983 -11.21918 -11.21909 -11.21548
 Alpha  occ. eigenvalues --  -11.21518 -11.21441 -11.21433 -11.21418 -11.21389
 Alpha  occ. eigenvalues --  -11.21341 -11.21340 -11.21302 -11.21167 -11.21027
 Alpha  occ. eigenvalues --  -11.21020 -11.20915 -11.20815  -1.34653  -1.15847
 Alpha  occ. eigenvalues --   -1.13426  -1.09585  -1.07983  -1.06070  -1.05571
 Alpha  occ. eigenvalues --   -1.02649  -1.01348  -0.99563  -0.97725  -0.95786
 Alpha  occ. eigenvalues --   -0.92712  -0.92385  -0.91946  -0.90923  -0.90643
 Alpha  occ. eigenvalues --   -0.85955  -0.84119  -0.82347  -0.81733  -0.78637
 Alpha  occ. eigenvalues --   -0.76595  -0.76274  -0.74628  -0.73672  -0.71740
 Alpha  occ. eigenvalues --   -0.68972  -0.66832  -0.65059  -0.64307  -0.63813
 Alpha  occ. eigenvalues --   -0.63309  -0.62369  -0.62275  -0.60906  -0.60236
 Alpha  occ. eigenvalues --   -0.59519  -0.58896  -0.58508  -0.58304  -0.57839
 Alpha  occ. eigenvalues --   -0.56522  -0.56229  -0.55606  -0.55222  -0.54710
 Alpha  occ. eigenvalues --   -0.54537  -0.53648  -0.53296  -0.52757  -0.52514
 Alpha  occ. eigenvalues --   -0.52344  -0.51728  -0.51468  -0.51161  -0.50734
 Alpha  occ. eigenvalues --   -0.50597  -0.50192  -0.48564  -0.48324  -0.47843
 Alpha  occ. eigenvalues --   -0.47101  -0.47041  -0.46592  -0.46085  -0.45355
 Alpha  occ. eigenvalues --   -0.45170  -0.44935  -0.44469  -0.44122  -0.43720
 Alpha  occ. eigenvalues --   -0.43454  -0.43286  -0.42936  -0.42407  -0.41530
 Alpha  occ. eigenvalues --   -0.39773  -0.38395  -0.32776
 Alpha virt. eigenvalues --    0.18189   0.21220   0.21958   0.22250   0.22573
 Alpha virt. eigenvalues --    0.23407   0.24170   0.24666   0.24931   0.25950
 Alpha virt. eigenvalues --    0.26053   0.26326   0.26943   0.27561   0.28120

 Mulliken charges:
               1
     1  O   -0.765603
     2  H    0.433023
     3  C   -0.029021
     4  C   -0.158234
     5  H    0.151044
     6  C   -0.153676
     7  H    0.163571
     8  C   -0.154749
     9  H    0.155027
    10  C   -0.134983
    11  H    0.152563
    12  C   -0.298418
    13  H    0.151234
    14  H    0.163782
    15  C   -0.038450
    16  C   -0.316264
    17  H    0.165403
    18  H    0.158238
    19  C   -0.327687
    20  H    0.163849
    21  H    0.165918
    22  C   -0.335860
    23  H    0.160030
    24  H    0.167641
    25  C   -0.324501
    26  H    0.170172
    27  H    0.161245
    28  C   -0.149322
    29  H    0.152386
    30  C   -0.489013
    31  H    0.162802
    32  H    0.164703
    33  H    0.163853
    34  C    0.063520
    35  C   -0.326271
    36  H    0.160352
    37  H    0.169521
    38  C   -0.235033
    39  H    0.171921
    40  C   -0.480177
    41  H    0.162483
    42  H    0.168512
    43  H    0.165289
    44  C   -0.370666
    45  H    0.159867
    46  H    0.179314
    47  C   -0.327097
    48  H    0.171469
    49  H    0.178729
    50  C   -0.307218
    51  H    0.164952
    52  H    0.147577
    53  C    0.194441
    54  H    0.144542
    55  C   -0.484944
    56  H    0.153011
    57  H    0.163475
    58  H    0.162516
    59  C   -0.314761
    60  H    0.159605
    61  H    0.154026
    62  C   -0.300806
    63  H    0.151611
    64  H    0.151059
    65  C   -0.146370
    66  H    0.155388
    67  C   -0.476187
    68  H    0.156571
    69  H    0.158261
    70  H    0.156193
    71  C   -0.476303
    72  H    0.156930
    73  H    0.158499
    74  H    0.155497
 Sum of Mulliken charges =   0.00000

 Dipole moment (field-independent basis, Debye):
    X=             -0.3413    Y=             -0.4332    Z=             -1.7128  Tot=              1.7994
 Quadrupole moment (field-independent basis, Debye-Ang):
   XX=           -181.2571   YY=           -174.3303   ZZ=           -201.7447
   XY=              1.5921   XZ=             -2.6632   YZ=              1.3990

 ESP charges:
               1
     1  O   -0.744188
     2  H    0.432181
     3  C    0.604369
     4  C   -0.012779
     5  H   -0.007463
     6  C    0.060546
     7  H    0.018936
     8  C   -0.065524
     9  H    0.015938
    10  C   -0.020896
    11  H   -0.021240
    12  C   -0.163053
    13  H   -0.002892
    14  H    0.019766
    15  C    0.430302
    16  C   -0.203645
    17  H    0.052445
    18  H    0.040213
    19  C   -0.061253
    20  H    0.018727
    21  H    0.030434
    22  C   -0.080433
    23  H    0.032470
    24  H    0.040744
    25  C   -0.099494
    26  H    0.060350
    27  H    0.052684
    28  C    0.109164
    29  H    0.006720
    30  C   -0.587673
    31  H    0.116990
    32  H    0.117368
    33  H    0.123275
    34  C   -0.105099
    35  C   -0.331684
    36  H    0.073118
    37  H    0.087534
    38  C   -0.249328
    39  H    0.143841
    40  C   -0.478883
    41  H    0.102672
    42  H    0.129663
    43  H    0.107416
    44  C   -0.294125
    45  H    0.085182
    46  H    0.109491
    47  C   -0.027626
    48  H    0.056953
    49  H    0.048921
    50  C   -0.218247
    51  H    0.030309
    52  H    0.058892
    53  C    0.398570
    54  H   -0.012030
    55  C   -0.445886
    56  H    0.103200
    57  H    0.096432
    58  H    0.108912
    59  C    0.316828
    60  H   -0.021320
    61  H   -0.043801
    62  C   -0.378414
    63  H    0.059378
    64  H    0.070007
    65  C    0.450051
    66  H   -0.043827
    67  C   -0.434191
    68  H    0.093484
    69  H    0.096907
    70  H    0.093382
    71  C   -0.434858
    72  H    0.095129
    73  H    0.096454
    74  H    0.093507
 Sum of ESP charges =   0.00000

 Normal termination of Gaussian 09 at Tue Mar 21 13:00:45 2017.
