 Gaussian 09, Revision D.01,
 Gaussian 09:  EM64L-G09RevD.01 24-Apr-2013

 ----------------------------------------------------------------------
 #P HF/6-31G* SCF(Conver=6) NoSymm Test Pop=mk IOp(6/33=2) GFInput GFPr
 int
 ----------------------------------------------------------------------

 ----------------------------------------------
 MEP - Input generated by R.E.D.-III.x MOLECULE
 ----------------------------------------------
 Symbolic Z-matrix:
 Charge =  0 Multiplicity = 1

                          Input orientation:
 ---------------------------------------------------------------------
 Center     Atomic      Atomic             Coordinates (Angstroms)
 Number     Number       Type             X           Y           Z
 ---------------------------------------------------------------------
      1          8           0       -3.736761   -3.609305   -4.122155
      2          1           0       -3.884090   -4.451906   -3.672421
      3          6           0        1.600622    2.064106    0.000000
      4          6           0        1.327216    0.608466    0.472136
      5          1           0        2.118100    0.000000    0.000000
      6          6           0        0.000000    0.000000    0.000000
      7          1           0       -0.833788    0.576654    0.425070
      8          6           0       -0.083052    0.052201   -1.547946
      9          1           0        0.695681   -0.640508   -1.908049
     10          6           0        2.987176    2.318858    0.687434
     11          1           0        3.726908    1.747261    0.104247
     12          6           0        1.592805    2.031026   -1.542471
     13          1           0        2.437045    1.414700   -1.884275
     14          1           0        1.742455    3.027267   -1.970660
     15          6           0       -1.439914   -0.509815   -2.100947
     16          6           0        1.640127    0.632850    1.975502
     17          1           0        1.888694   -0.358119    2.368297
     18          1           0        0.773557    0.990153    2.545543
     19          6           0        0.275667    1.451743   -2.098856
     20          1           0       -0.534112    2.156124   -1.880745
     21          1           0        0.350613    1.409875   -3.191377
     22          6           0        2.831412    1.623906    2.085025
     23          1           0        2.650008    2.371898    2.865908
     24          1           0        3.749860    1.101236    2.368073
     25          6           0       -0.140086   -1.453139    0.481849
     26          1           0       -0.353096   -1.474557    1.558941
     27          1           0        0.825472   -1.973234    0.365978
     28          6           0        3.529739    3.766160    0.806262
     29          1           0        2.831521    4.324050    1.447630
     30          6           0        0.546911    3.063489    0.531298
     31          1           0        0.730930    4.067334    0.134811
     32          1           0       -0.470224    2.785587    0.244548
     33          1           0        0.565325    3.137256    1.622901
     34          6           0       -1.804148   -1.816538   -1.382114
     35          6           0       -1.266393   -0.823472   -3.619868
     36          1           0       -0.331064   -1.385848   -3.748686
     37          1           0       -1.144157    0.113520   -4.174022
     38          6           0       -1.203604   -2.219111   -0.252495
     39          1           0       -1.500753   -3.173550    0.183647
     40          6           0       -2.599593    0.504326   -1.910806
     41          1           0       -2.470915    1.383478   -2.549993
     42          1           0       -3.565723    0.061381   -2.165022
     43          1           0       -2.663019    0.841684   -0.871618
     44          6           0       -2.896653   -2.658382   -2.014918
     45          1           0       -2.997822   -3.601556   -1.462585
     46          1           0       -3.868522   -2.148827   -1.950901
     47          6           0       -2.411398   -1.630266   -4.249378
     48          1           0       -3.349652   -1.061641   -4.239624
     49          1           0       -2.185215   -1.844124   -5.300177
     50          6           0        4.922356    3.783527    1.508622
     51          1           0        5.117223    2.812885    1.976206
     52          1           0        5.705424    3.905984    0.746614
     53          6           0       -2.633059   -2.938419   -3.501496
     54          1           0       -1.727304   -3.560485   -3.593140
     55          6           0        3.616625    4.498498   -0.545845
     56          1           0        4.196226    3.911708   -1.269281
     57          1           0        4.117088    5.464840   -0.433091
     58          1           0        2.633381    4.690041   -0.982889
     59          6           0        5.102881    4.859029    2.597711
     60          1           0        4.338177    4.701368    3.369826
     61          1           0        6.071453    4.690211    3.090352
     62          6           0        5.056439    6.314465    2.108051
     63          1           0        4.063244    6.542873    1.695325
     64          1           0        5.767074    6.426164    1.276387
     65          6           0        5.394494    7.372044    3.179572
     66          1           0        6.372627    7.106969    3.610276
     67          6           0        4.368504    7.401995    4.324191
     68          1           0        4.309268    6.444787    4.851677
     69          1           0        4.628431    8.169414    5.062193
     70          1           0        3.366548    7.636234    3.941209
     71          6           0        5.526454    8.763790    2.540837
     72          1           0        6.286344    8.771136    1.750974
     73          1           0        5.807790    9.518069    3.284562
     74          1           0        4.575934    9.079377    2.091671
 ---------------------------------------------------------------------

 SCF Done:  E(RHF) =  -1124.07577795     A.U. after    9 cycles

 Alpha  occ. eigenvalues --  -20.55351 -11.27427 -11.23890 -11.22698 -11.22644
 Alpha  occ. eigenvalues --  -11.22507 -11.22307 -11.22294 -11.22134 -11.22054
 Alpha  occ. eigenvalues --  -11.22044 -11.21988 -11.21920 -11.21911 -11.21646
 Alpha  occ. eigenvalues --  -11.21558 -11.21471 -11.21457 -11.21438 -11.21390
 Alpha  occ. eigenvalues --  -11.21373 -11.21336 -11.21332 -11.21168 -11.21062
 Alpha  occ. eigenvalues --  -11.21048 -11.20917 -11.20801  -1.34654  -1.15850
 Alpha  occ. eigenvalues --   -1.13424  -1.09611  -1.07976  -1.06050  -1.05516
 Alpha  occ. eigenvalues --   -1.02653  -1.01349  -0.99578  -0.97717  -0.95789
 Alpha  occ. eigenvalues --   -0.92729  -0.92397  -0.91966  -0.91203  -0.90636
 Alpha  occ. eigenvalues --   -0.85954  -0.83534  -0.81944  -0.81675  -0.78563
 Alpha  occ. eigenvalues --   -0.76642  -0.76376  -0.75838  -0.73815  -0.71817
 Alpha  occ. eigenvalues --   -0.68979  -0.66829  -0.64877  -0.64325  -0.63703
 Alpha  occ. eigenvalues --   -0.63390  -0.62643  -0.61196  -0.61009  -0.59602
 Alpha  occ. eigenvalues --   -0.59429  -0.59248  -0.58725  -0.58284  -0.57608
 Alpha  occ. eigenvalues --   -0.56614  -0.55992  -0.55633  -0.55300  -0.54575
 Alpha  occ. eigenvalues --   -0.54535  -0.53633  -0.53215  -0.52944  -0.52555
 Alpha  occ. eigenvalues --   -0.52395  -0.52199  -0.51667  -0.51205  -0.51122
 Alpha  occ. eigenvalues --   -0.50440  -0.50236  -0.48815  -0.48387  -0.47633
 Alpha  occ. eigenvalues --   -0.47109  -0.47003  -0.46684  -0.46074  -0.45314
 Alpha  occ. eigenvalues --   -0.45179  -0.44587  -0.44335  -0.44240  -0.43851
 Alpha  occ. eigenvalues --   -0.43402  -0.43137  -0.42909  -0.42311  -0.41658
 Alpha  occ. eigenvalues --   -0.39775  -0.38404  -0.32778
 Alpha virt. eigenvalues --    0.18187   0.21318   0.22124   0.22301   0.22648
 Alpha virt. eigenvalues --    0.23353   0.24036   0.24478   0.24935   0.25635
 Alpha virt. eigenvalues --    0.26240   0.26451   0.27165   0.27480   0.27723

 Mulliken charges:
               1
     1  O   -0.765610
     2  H    0.433022
     3  C   -0.029435
     4  C   -0.158035
     5  H    0.150976
     6  C   -0.153833
     7  H    0.163546
     8  C   -0.154710
     9  H    0.155006
    10  C   -0.142529
    11  H    0.153106
    12  C   -0.298229
    13  H    0.151097
    14  H    0.164352
    15  C   -0.038450
    16  C   -0.316769
    17  H    0.165529
    18  H    0.158428
    19  C   -0.327779
    20  H    0.163855
    21  H    0.165930
    22  C   -0.333669
    23  H    0.160703
    24  H    0.166377
    25  C   -0.324446
    26  H    0.170116
    27  H    0.161188
    28  C   -0.138621
    29  H    0.157020
    30  C   -0.489706
    31  H    0.162870
    32  H    0.164869
    33  H    0.163751
    34  C    0.063526
    35  C   -0.326290
    36  H    0.160351
    37  H    0.169551
    38  C   -0.235020
    39  H    0.171929
    40  C   -0.480163
    41  H    0.162516
    42  H    0.168507
    43  H    0.165248
    44  C   -0.370682
    45  H    0.159867
    46  H    0.179306
    47  C   -0.327107
    48  H    0.171467
    49  H    0.178745
    50  C   -0.319829
    51  H    0.165679
    52  H    0.154892
    53  C    0.194469
    54  H    0.144541
    55  C   -0.489004
    56  H    0.153943
    57  H    0.166606
    58  H    0.159208
    59  C   -0.307890
    60  H    0.154631
    61  H    0.152028
    62  C   -0.301802
    63  H    0.152599
    64  H    0.151568
    65  C   -0.146841
    66  H    0.151347
    67  C   -0.476637
    68  H    0.162750
    69  H    0.158499
    70  H    0.151388
    71  C   -0.472313
    72  H    0.157793
    73  H    0.158258
    74  H    0.152449
 Sum of Mulliken charges =   0.00000

 Dipole moment (field-independent basis, Debye):
    X=              1.1338    Y=             -0.3320    Z=              1.3996  Tot=              1.8316
 Quadrupole moment (field-independent basis, Debye-Ang):
   XX=           -185.9216   YY=           -176.0509   ZZ=           -191.0792
   XY=             -0.8563   XZ=             -7.7620   YZ=             -4.1731

 ESP charges:
               1
     1  O   -0.755103
     2  H    0.432553
     3  C    0.524488
     4  C   -0.062157
     5  H    0.020066
     6  C    0.030346
     7  H    0.028120
     8  C   -0.074980
     9  H    0.016136
    10  C    0.100283
    11  H   -0.051413
    12  C   -0.163787
    13  H    0.000887
    14  H    0.022323
    15  C    0.467659
    16  C   -0.136562
    17  H    0.043700
    18  H    0.043735
    19  C   -0.034207
    20  H    0.018613
    21  H    0.023185
    22  C   -0.236810
    23  H    0.059355
    24  H    0.083521
    25  C   -0.064800
    26  H    0.049686
    27  H    0.044064
    28  C    0.158579
    29  H    0.002698
    30  C   -0.585251
    31  H    0.112819
    32  H    0.126433
    33  H    0.124824
    34  C   -0.130148
    35  C   -0.341926
    36  H    0.073333
    37  H    0.087134
    38  C   -0.242060
    39  H    0.141779
    40  C   -0.464931
    41  H    0.093364
    42  H    0.126090
    43  H    0.101550
    44  C   -0.294003
    45  H    0.083927
    46  H    0.108318
    47  C   -0.037212
    48  H    0.058651
    49  H    0.050887
    50  C   -0.163815
    51  H    0.021567
    52  H    0.057923
    53  C    0.432091
    54  H   -0.021512
    55  C   -0.371726
    56  H    0.073106
    57  H    0.078558
    58  H    0.084737
    59  C   -0.003442
    60  H    0.018275
    61  H    0.013055
    62  C   -0.170640
    63  H    0.055251
    64  H    0.055937
    65  C    0.371747
    66  H   -0.029949
    67  C   -0.399343
    68  H    0.080181
    69  H    0.092007
    70  H    0.096572
    71  C   -0.474728
    72  H    0.096140
    73  H    0.117467
    74  H    0.106788
 Sum of ESP charges =   0.00000

 Normal termination of Gaussian 09 at Tue Mar 21 12:04:11 2017.
