 Gaussian 09, Revision D.01,
 Gaussian 09:  EM64L-G09RevD.01 24-Apr-2013

 ----------------------------------------------------------------------
 #P HF/6-31G* SCF(Conver=6) NoSymm Test Pop=mk IOp(6/33=2) GFInput GFPr
 int
 ----------------------------------------------------------------------

 ----------------------------------------------
 MEP - Input generated by R.E.D.-III.x MOLECULE
 ----------------------------------------------
 Symbolic Z-matrix:
 Charge =  0 Multiplicity = 1

                          Input orientation:
 ---------------------------------------------------------------------
 Center     Atomic      Atomic             Coordinates (Angstroms)
 Number     Number       Type             X           Y           Z
 ---------------------------------------------------------------------
      1          8           0        0.391695   -3.287255    7.293755
      2          1           0        0.232226   -4.230919    7.159549
      3          6           0        1.508954    1.495947    0.000000
      4          6           0        1.103458    0.000000    0.000000
      5          1           0        0.000000    0.000000    0.000000
      6          6           0        1.511259   -0.777556    1.257269
      7          1           0        2.607517   -0.793974    1.335646
      8          6           0        0.918282   -0.082166    2.514304
      9          1           0       -0.173035   -0.217824    2.433740
     10          6           0        0.951546    1.916313   -1.395853
     11          1           0       -0.140213    1.867336   -1.272744
     12          6           0        0.814995    2.156046    1.204416
     13          1           0       -0.273199    2.113502    1.051486
     14          1           0        1.078912    3.219308    1.283539
     15          6           0        1.335790   -0.793334    3.849960
     16          6           0        1.534125   -0.509489   -1.389167
     17          1           0        0.943033   -1.370973   -1.715542
     18          1           0        2.582223   -0.833512   -1.377546
     19          6           0        1.175179    1.446111    2.526471
     20          1           0        2.227065    1.644891    2.755405
     21          1           0        0.599990    1.906850    3.337313
     22          6           0        1.344775    0.725230   -2.325467
     23          1           0        2.268947    0.932957   -2.871815
     24          1           0        0.573257    0.545067   -3.081334
     25          6           0        1.022341   -2.233035    1.189109
     26          1           0        1.630975   -2.801208    0.472966
     27          1           0       -0.002696   -2.257385    0.783019
     28          6           0        1.241639    3.355666   -1.913403
     29          1           0        1.316855    4.000094   -1.024009
     30          6           0        3.037787    1.698169    0.090898
     31          1           0        3.283121    2.765794    0.085608
     32          1           0        3.454619    1.277652    1.009206
     33          1           0        3.568198    1.231672   -0.744066
     34          6           0        1.194680   -2.315632    3.706477
     35          6           0        0.375557   -0.322064    4.986478
     36          1           0       -0.655835   -0.388387    4.612882
     37          1           0        0.559651    0.735553    5.204206
     38          6           0        1.040877   -2.925776    2.522043
     39          1           0        0.921507   -4.009712    2.506228
     40          6           0        2.801546   -0.463979    4.240858
     41          1           0        2.912143    0.585099    4.532734
     42          1           0        3.136394   -1.069072    5.086987
     43          1           0        3.486245   -0.663666    3.410838
     44          6           0        1.236148   -3.125436    4.989206
     45          1           0        1.034361   -4.180276    4.762413
     46          1           0        2.236138   -3.085583    5.443899
     47          6           0        0.474231   -1.124132    6.292257
     48          1           0        1.458761   -1.000436    6.760422
     49          1           0       -0.264410   -0.756884    7.013792
     50          6           0        2.554800    3.527477   -2.714292
     51          1           0        3.354372    2.927264   -2.267191
     52          1           0        2.406316    3.127734   -3.726084
     53          6           0        0.243630   -2.608383    6.040528
     54          1           0       -0.782912   -2.752108    5.664579
     55          6           0        0.041308    3.865510   -2.737453
     56          1           0       -0.129635    3.226562   -3.613011
     57          1           0        0.196602    4.887118   -3.098628
     58          1           0       -0.877311    3.864059   -2.140322
     59          6           0        3.048071    4.982301   -2.798041
     60          1           0        2.299544    5.610398   -3.295770
     61          1           0        3.136880    5.378888   -1.776717
     62          6           0        4.411722    5.152417   -3.492711
     63          1           0        5.160075    4.564662   -2.941454
     64          1           0        4.724141    6.203214   -3.399753
     65          6           0        4.487361    4.759983   -4.983875
     66          1           0        4.191812    3.705250   -5.078428
     67          6           0        5.933829    4.879029   -5.490360
     68          1           0        6.616760    4.258170   -4.899091
     69          1           0        6.016417    4.565208   -6.537227
     70          1           0        6.286729    5.916412   -5.425629
     71          6           0        3.539779    5.595318   -5.859379
     72          1           0        2.490937    5.466001   -5.573499
     73          1           0        3.630459    5.312174   -6.914238
     74          1           0        3.778084    6.664126   -5.780674
 ---------------------------------------------------------------------

 SCF Done:  E(RHF) =  -1124.07645577     A.U. after    9 cycles

 Alpha  occ. eigenvalues --  -20.55370 -11.27447 -11.23940 -11.22725 -11.22434
 Alpha  occ. eigenvalues --  -11.22426 -11.22415 -11.22400 -11.22154 -11.22089
 Alpha  occ. eigenvalues --  -11.22013 -11.21951 -11.21931 -11.21869 -11.21574
 Alpha  occ. eigenvalues --  -11.21560 -11.21547 -11.21516 -11.21484 -11.21476
 Alpha  occ. eigenvalues --  -11.21413 -11.21402 -11.21276 -11.21201 -11.21036
 Alpha  occ. eigenvalues --  -11.21031 -11.21002 -11.20939  -1.34673  -1.15914
 Alpha  occ. eigenvalues --   -1.13476  -1.09624  -1.07964  -1.06100  -1.05506
 Alpha  occ. eigenvalues --   -1.02651  -1.01378  -0.99703  -0.97772  -0.95752
 Alpha  occ. eigenvalues --   -0.92410  -0.92374  -0.91897  -0.91348  -0.90695
 Alpha  occ. eigenvalues --   -0.85982  -0.83466  -0.82405  -0.81931  -0.79673
 Alpha  occ. eigenvalues --   -0.76674  -0.76442  -0.74878  -0.72840  -0.71621
 Alpha  occ. eigenvalues --   -0.68993  -0.66865  -0.64679  -0.64414  -0.64078
 Alpha  occ. eigenvalues --   -0.63459  -0.62294  -0.62102  -0.60886  -0.60586
 Alpha  occ. eigenvalues --   -0.59447  -0.58933  -0.58604  -0.58165  -0.57570
 Alpha  occ. eigenvalues --   -0.56627  -0.56146  -0.55518  -0.55439  -0.54434
 Alpha  occ. eigenvalues --   -0.54084  -0.53807  -0.53316  -0.53049  -0.52783
 Alpha  occ. eigenvalues --   -0.52364  -0.52325  -0.51723  -0.51248  -0.50690
 Alpha  occ. eigenvalues --   -0.50408  -0.50131  -0.48597  -0.48267  -0.48031
 Alpha  occ. eigenvalues --   -0.47432  -0.47205  -0.46792  -0.46332  -0.45551
 Alpha  occ. eigenvalues --   -0.45200  -0.44634  -0.44597  -0.43736  -0.43691
 Alpha  occ. eigenvalues --   -0.43468  -0.42978  -0.42579  -0.42160  -0.41708
 Alpha  occ. eigenvalues --   -0.39826  -0.38667  -0.32802
 Alpha virt. eigenvalues --    0.18153   0.20813   0.22166   0.22321   0.22616
 Alpha virt. eigenvalues --    0.23403   0.23771   0.23991   0.24585   0.25458
 Alpha virt. eigenvalues --    0.26488   0.26864   0.27000   0.27279   0.27879

 Mulliken charges:
               1
     1  O   -0.765578
     2  H    0.433064
     3  C   -0.031254
     4  C   -0.157971
     5  H    0.150957
     6  C   -0.153687
     7  H    0.164084
     8  C   -0.155262
     9  H    0.155285
    10  C   -0.147661
    11  H    0.156472
    12  C   -0.296198
    13  H    0.151566
    14  H    0.158003
    15  C   -0.038291
    16  C   -0.318068
    17  H    0.165264
    18  H    0.158298
    19  C   -0.328415
    20  H    0.164776
    21  H    0.166725
    22  C   -0.329500
    23  H    0.167579
    24  H    0.164063
    25  C   -0.324058
    26  H    0.170187
    27  H    0.161225
    28  C   -0.143683
    29  H    0.157668
    30  C   -0.488529
    31  H    0.162299
    32  H    0.165746
    33  H    0.163808
    34  C    0.063316
    35  C   -0.326502
    36  H    0.160379
    37  H    0.169646
    38  C   -0.235068
    39  H    0.172087
    40  C   -0.480344
    41  H    0.162288
    42  H    0.168708
    43  H    0.165564
    44  C   -0.370760
    45  H    0.159968
    46  H    0.179313
    47  C   -0.327130
    48  H    0.171507
    49  H    0.178800
    50  C   -0.318793
    51  H    0.163011
    52  H    0.156119
    53  C    0.194477
    54  H    0.144582
    55  C   -0.482654
    56  H    0.154241
    57  H    0.161146
    58  H    0.158501
    59  C   -0.312877
    60  H    0.158144
    61  H    0.153655
    62  C   -0.297983
    63  H    0.151084
    64  H    0.151037
    65  C   -0.151595
    66  H    0.155941
    67  C   -0.471835
    68  H    0.157512
    69  H    0.158082
    70  H    0.152397
    71  C   -0.476729
    72  H    0.161381
    73  H    0.158406
    74  H    0.152068
 Sum of Mulliken charges =   0.00000

 Dipole moment (field-independent basis, Debye):
    X=             -0.3265    Y=             -0.5018    Z=             -1.5040  Tot=              1.6187
 Quadrupole moment (field-independent basis, Debye-Ang):
   XX=           -182.1986   YY=           -174.0764   ZZ=           -202.8447
   XY=              1.3233   XZ=             -2.1966   YZ=              2.0551

 ESP charges:
               1
     1  O   -0.747762
     2  H    0.433506
     3  C    0.419077
     4  C    0.001603
     5  H    0.007296
     6  C    0.013867
     7  H    0.037985
     8  C   -0.021449
     9  H    0.013154
    10  C   -0.032429
    11  H    0.019785
    12  C   -0.212746
    13  H    0.021830
    14  H    0.043341
    15  C    0.376312
    16  C   -0.177447
    17  H    0.042564
    18  H    0.043762
    19  C   -0.020967
    20  H    0.025902
    21  H    0.021329
    22  C   -0.043108
    23  H    0.008744
    24  H    0.033854
    25  C   -0.083461
    26  H    0.058154
    27  H    0.050915
    28  C    0.057707
    29  H    0.026968
    30  C   -0.601875
    31  H    0.139207
    32  H    0.126644
    33  H    0.149796
    34  C   -0.073812
    35  C   -0.321613
    36  H    0.069731
    37  H    0.084450
    38  C   -0.257383
    39  H    0.143370
    40  C   -0.459581
    41  H    0.096622
    42  H    0.127015
    43  H    0.103886
    44  C   -0.317357
    45  H    0.089151
    46  H    0.113121
    47  C   -0.008931
    48  H    0.053715
    49  H    0.041219
    50  C   -0.047882
    51  H    0.023268
    52  H    0.041427
    53  C    0.409018
    54  H   -0.016264
    55  C   -0.479778
    56  H    0.116130
    57  H    0.127964
    58  H    0.114194
    59  C   -0.006889
    60  H    0.020346
    61  H    0.022135
    62  C   -0.280573
    63  H    0.057557
    64  H    0.060738
    65  C    0.531065
    66  H   -0.072932
    67  C   -0.500045
    68  H    0.098370
    69  H    0.113134
    70  H    0.110162
    71  C   -0.443684
    72  H    0.097910
    73  H    0.089505
    74  H    0.099466
 Sum of ESP charges =   0.00000

 Normal termination of Gaussian 09 at Tue Mar 21 12:31:58 2017.
