 Gaussian 09, Revision D.01,
 Gaussian 09:  EM64L-G09RevD.01 24-Apr-2013

 ----------------------------------------------------------------------
 #P HF/6-31G* SCF(Conver=6) NoSymm Test Pop=mk IOp(6/33=2) GFInput GFPr
 int
 ----------------------------------------------------------------------

 ----------------------------------------------
 MEP - Input generated by R.E.D.-III.x MOLECULE
 ----------------------------------------------
 Symbolic Z-matrix:
 Charge =  0 Multiplicity = 1

                          Input orientation:
 ---------------------------------------------------------------------
 Center     Atomic      Atomic             Coordinates (Angstroms)
 Number     Number       Type             X           Y           Z
 ---------------------------------------------------------------------
      1          8           0        0.451180   -3.390388    7.254506
      2          1           0        0.285509   -4.331176    7.108159
      3          6           0        1.508102    1.501163    0.000000
      4          6           0        1.103917    0.000000    0.000000
      5          1           0        0.000000    0.000000    0.000000
      6          6           0        1.517836   -0.794715    1.245711
      7          1           0        2.614837   -0.815433    1.313254
      8          6           0        0.942788   -0.119000    2.517865
      9          1           0       -0.150634   -0.243852    2.448716
     10          6           0        0.952346    1.934821   -1.401712
     11          1           0       -0.142292    1.992724   -1.290720
     12          6           0        0.832486    2.132650    1.235171
     13          1           0       -0.257926    2.088818    1.099071
     14          1           0        1.089415    3.191164    1.342661
     15          6           0        1.371160   -0.850681    3.838335
     16          6           0        1.536194   -0.509534   -1.382539
     17          1           0        0.977993   -1.397512   -1.695570
     18          1           0        2.597107   -0.788878   -1.378102
     19          6           0        1.217588    1.402474    2.538424
     20          1           0        2.278326    1.586210    2.739764
     21          1           0        0.670484    1.864708    3.367882
     22          6           0        1.280188    0.704574   -2.316957
     23          1           0        2.160057    0.913373   -2.937264
     24          1           0        0.457124    0.501106   -3.008451
     25          6           0        1.025363   -2.248448    1.159231
     26          1           0        1.627306   -2.808040    0.430901
     27          1           0       -0.002797   -2.264973    0.760689
     28          6           0        1.409163    3.279593   -2.024732
     29          1           0        2.492956    3.213371   -2.205525
     30          6           0        3.040695    1.699737    0.053019
     31          1           0        3.291305    2.764154    0.109263
     32          1           0        3.492098    1.216174    0.922734
     33          1           0        3.537477    1.295946   -0.834440
     34          6           0        1.221789   -2.369763    3.673822
     35          6           0        0.424597   -0.391745    4.991129
     36          1           0       -0.610833   -0.448908    4.627354
     37          1           0        0.615130    0.662094    5.221493
     38          6           0        1.052863   -2.960808    2.481775
     39          1           0        0.927877   -4.043807    2.450572
     40          6           0        2.842030   -0.531574    4.218196
     41          1           0        2.958801    0.513424    4.522110
     42          1           0        3.183953   -1.148527    5.052885
     43          1           0        3.517364   -0.722410    3.378418
     44          6           0        1.272050   -3.198933    4.943707
     45          1           0        1.062210   -4.249204    4.703353
     46          1           0        2.276901   -3.171183    5.388387
     47          6           0        0.533551   -1.213040    6.284079
     48          1           0        1.523592   -1.100681    6.743364
     49          1           0       -0.195683   -0.853272    7.018827
     50          6           0        0.728600    3.499640   -3.400617
     51          1           0        0.724273    2.557583   -3.957173
     52          1           0       -0.328601    3.758282   -3.232755
     53          6           0        0.293309   -2.692420    6.012990
     54          1           0       -0.737825   -2.825734    5.645948
     55          6           0        1.150940    4.489038   -1.108096
     56          1           0        0.098760    4.526774   -0.799457
     57          1           0        1.378976    5.429861   -1.618157
     58          1           0        1.762666    4.461840   -0.203559
     59          6           0        1.382937    4.578292   -4.279674
     60          1           0        1.448100    5.522723   -3.726114
     61          1           0        2.420359    4.285966   -4.492148
     62          6           0        0.637116    4.865200   -5.596438
     63          1           0        1.131072    5.708590   -6.101571
     64          1           0       -0.377675    5.211813   -5.352813
     65          6           0        0.524543    3.702404   -6.605524
     66          1           0        0.011682    2.864619   -6.111845
     67          6           0        1.898135    3.201647   -7.079365
     68          1           0        2.506084    2.818514   -6.253362
     69          1           0        1.788837    2.392500   -7.810451
     70          1           0        2.462286    4.010818   -7.561325
     71          6           0       -0.337982    4.125186   -7.805631
     72          1           0       -1.335183    4.449516   -7.486478
     73          1           0       -0.464783    3.299877   -8.515593
     74          1           0        0.126371    4.960140   -8.346122
 ---------------------------------------------------------------------

 SCF Done:  E(RHF) =  -1124.07866799     A.U. after    9 cycles

 Alpha  occ. eigenvalues --  -20.55358 -11.27435 -11.23901 -11.22709 -11.22686
 Alpha  occ. eigenvalues --  -11.22416 -11.22380 -11.22318 -11.22142 -11.22091
 Alpha  occ. eigenvalues --  -11.22056 -11.22000 -11.21929 -11.21922 -11.21573
 Alpha  occ. eigenvalues --  -11.21561 -11.21503 -11.21489 -11.21453 -11.21398
 Alpha  occ. eigenvalues --  -11.21354 -11.21340 -11.21325 -11.21179 -11.21051
 Alpha  occ. eigenvalues --  -11.21039 -11.20933 -11.20847  -1.34661  -1.15868
 Alpha  occ. eigenvalues --   -1.13447  -1.09664  -1.08004  -1.06073  -1.05569
 Alpha  occ. eigenvalues --   -1.02667  -1.01351  -0.99586  -0.97747  -0.95808
 Alpha  occ. eigenvalues --   -0.92733  -0.92414  -0.91962  -0.91002  -0.90667
 Alpha  occ. eigenvalues --   -0.85966  -0.83687  -0.82249  -0.81740  -0.79074
 Alpha  occ. eigenvalues --   -0.76663  -0.76348  -0.74752  -0.73868  -0.71764
 Alpha  occ. eigenvalues --   -0.68982  -0.66836  -0.64901  -0.64329  -0.63839
 Alpha  occ. eigenvalues --   -0.63315  -0.63211  -0.61677  -0.60797  -0.60519
 Alpha  occ. eigenvalues --   -0.59160  -0.58930  -0.58319  -0.58024  -0.57491
 Alpha  occ. eigenvalues --   -0.56565  -0.56141  -0.55766  -0.55339  -0.54601
 Alpha  occ. eigenvalues --   -0.54262  -0.53857  -0.53527  -0.53088  -0.52954
 Alpha  occ. eigenvalues --   -0.52341  -0.52321  -0.51534  -0.51257  -0.50844
 Alpha  occ. eigenvalues --   -0.50178  -0.49550  -0.48796  -0.48384  -0.47843
 Alpha  occ. eigenvalues --   -0.47278  -0.46919  -0.46684  -0.46305  -0.45506
 Alpha  occ. eigenvalues --   -0.45201  -0.44688  -0.44391  -0.44007  -0.43879
 Alpha  occ. eigenvalues --   -0.43443  -0.43219  -0.42927  -0.42421  -0.41606
 Alpha  occ. eigenvalues --   -0.39793  -0.38457  -0.32788
 Alpha virt. eigenvalues --    0.18176   0.20975   0.22047   0.22222   0.22596
 Alpha virt. eigenvalues --    0.23485   0.24179   0.24589   0.24724   0.25823
 Alpha virt. eigenvalues --    0.25997   0.26655   0.27099   0.27409   0.27953

 Mulliken charges:
               1
     1  O   -0.765596
     2  H    0.433033
     3  C   -0.029089
     4  C   -0.158054
     5  H    0.151024
     6  C   -0.153873
     7  H    0.163618
     8  C   -0.154748
     9  H    0.155047
    10  C   -0.135058
    11  H    0.152611
    12  C   -0.298321
    13  H    0.151096
    14  H    0.164069
    15  C   -0.038385
    16  C   -0.316068
    17  H    0.165518
    18  H    0.158438
    19  C   -0.327808
    20  H    0.163918
    21  H    0.165977
    22  C   -0.336275
    23  H    0.159798
    24  H    0.166775
    25  C   -0.324452
    26  H    0.170163
    27  H    0.161202
    28  C   -0.147531
    29  H    0.152862
    30  C   -0.489317
    31  H    0.162982
    32  H    0.164876
    33  H    0.163773
    34  C    0.063513
    35  C   -0.326308
    36  H    0.160349
    37  H    0.169556
    38  C   -0.235036
    39  H    0.171962
    40  C   -0.480233
    41  H    0.162496
    42  H    0.168557
    43  H    0.165287
    44  C   -0.370655
    45  H    0.159891
    46  H    0.179324
    47  C   -0.327104
    48  H    0.171487
    49  H    0.178759
    50  C   -0.315009
    51  H    0.171104
    52  H    0.147434
    53  C    0.194440
    54  H    0.144543
    55  C   -0.485242
    56  H    0.153809
    57  H    0.162828
    58  H    0.162472
    59  C   -0.313064
    60  H    0.158588
    61  H    0.153793
    62  C   -0.297049
    63  H    0.150890
    64  H    0.151956
    65  C   -0.152977
    66  H    0.155944
    67  C   -0.476279
    68  H    0.160796
    69  H    0.158235
    70  H    0.152302
    71  C   -0.471634
    72  H    0.157724
    73  H    0.157972
    74  H    0.152371
 Sum of Mulliken charges =   0.00000

 Dipole moment (field-independent basis, Debye):
    X=             -0.3303    Y=             -0.4535    Z=             -1.5691  Tot=              1.6664
 Quadrupole moment (field-independent basis, Debye-Ang):
   XX=           -181.2446   YY=           -173.9372   ZZ=           -203.7419
   XY=              2.0292   XZ=             -2.9685   YZ=              2.0698

 ESP charges:
               1
     1  O   -0.744917
     2  H    0.432317
     3  C    0.672259
     4  C    0.010540
     5  H   -0.004738
     6  C    0.033493
     7  H    0.022084
     8  C   -0.054202
     9  H    0.012081
    10  C   -0.146384
    11  H   -0.013464
    12  C   -0.183935
    13  H    0.002340
    14  H    0.029378
    15  C    0.453287
    16  C   -0.214060
    17  H    0.052401
    18  H    0.043672
    19  C   -0.082665
    20  H    0.022271
    21  H    0.036102
    22  C   -0.094841
    23  H    0.038287
    24  H    0.061891
    25  C   -0.107106
    26  H    0.064235
    27  H    0.053288
    28  C    0.220836
    29  H   -0.021588
    30  C   -0.601310
    31  H    0.118004
    32  H    0.117256
    33  H    0.126725
    34  C   -0.116252
    35  C   -0.333552
    36  H    0.072458
    37  H    0.086131
    38  C   -0.239667
    39  H    0.142176
    40  C   -0.492161
    41  H    0.104498
    42  H    0.132530
    43  H    0.109925
    44  C   -0.293693
    45  H    0.085378
    46  H    0.109453
    47  C   -0.027284
    48  H    0.056517
    49  H    0.048886
    50  C   -0.009884
    51  H   -0.033119
    52  H    0.015598
    53  C    0.399791
    54  H   -0.012644
    55  C   -0.478505
    56  H    0.101705
    57  H    0.114385
    58  H    0.103284
    59  C    0.001290
    60  H    0.017483
    61  H    0.000386
    62  C   -0.213454
    63  H    0.044928
    64  H    0.041204
    65  C    0.502383
    66  H   -0.054187
    67  C   -0.427584
    68  H    0.094976
    69  H    0.086318
    70  H    0.097283
    71  C   -0.564789
    72  H    0.115729
    73  H    0.131083
    74  H    0.127463
 Sum of ESP charges =   0.00000

 Normal termination of Gaussian 09 at Tue Mar 21 11:59:43 2017.
