 Gaussian 09, Revision D.01,
 Gaussian 09:  EM64L-G09RevD.01 24-Apr-2013

 ----------------------------------------------------------------------
 #P HF/6-31G* SCF(Conver=6) NoSymm Test Pop=mk IOp(6/33=2) GFInput GFPr
 int
 ----------------------------------------------------------------------

 ----------------------------------------------
 MEP - Input generated by R.E.D.-III.x MOLECULE
 ----------------------------------------------
 Symbolic Z-matrix:
 Charge =  0 Multiplicity = 1

                          Input orientation:
 ---------------------------------------------------------------------
 Center     Atomic      Atomic             Coordinates (Angstroms)
 Number     Number       Type             X           Y           Z
 ---------------------------------------------------------------------
      1          8           0        4.995920   -0.222151   -7.255199
      2          1           0        5.947279   -0.309424   -7.109413
      3          6           0        0.000000    0.000000    0.000000
      4          6           0        1.554526    0.000000    0.000000
      5          1           0        1.840319    1.066155    0.000000
      6          6           0        2.213002   -0.603475   -1.247458
      7          1           0        1.946347   -1.667582   -1.318315
      8          6           0        1.709507    0.133204   -2.516441
      9          1           0        2.114690    1.156085   -2.442517
     10          6           0       -0.268255    0.646509    1.403313
     11          1           0       -0.015881    1.711547    1.292750
     12          6           0       -0.435871    0.821128   -1.230803
     13          1           0       -0.110972    1.862493   -1.091573
     14          1           0       -1.525320    0.846714   -1.335912
     15          6           0        2.304497   -0.464118   -3.839968
     16          6           0        1.937641   -0.549714    1.382930
     17          1           0        2.933030   -0.223585    1.700660
     18          1           0        1.953232   -1.646698    1.373784
     19          6           0        0.168660    0.264425   -2.536581
     20          1           0       -0.284845   -0.711052   -2.742012
     21          1           0       -0.134813    0.916356   -3.363540
     22          6           0        0.816287   -0.015131    2.316995
     23          1           0        0.375642   -0.832367    2.900144
     24          1           0        1.207839    0.703341    3.043921
     25          6           0        3.744820   -0.507486   -1.161415
     26          1           0        4.128341   -1.237165   -0.435865
     27          1           0        4.028983    0.479314   -0.759320
     28          6           0       -1.687043    0.570915    2.020166
     29          1           0       -1.932394   -0.493935    2.145186
     30          6           0       -0.593924   -1.425964   -0.057978
     31          1           0       -1.687243   -1.386626   -0.109501
     32          1           0       -0.250565   -1.983871   -0.932540
     33          1           0       -0.330954   -2.016599    0.824886
     34          6           0        3.809966   -0.717483   -3.676821
     35          6           0        2.109118    0.575928   -4.986999
     36          1           0        2.435461    1.558252   -4.617861
     37          1           0        1.042082    0.669275   -5.216591
     38          6           0        4.424966   -0.714532   -2.484966
     39          1           0        5.502995   -0.877020   -2.454783
     40          6           0        1.613144   -1.798703   -4.227733
     41          1           0        0.574307   -1.637403   -4.532385
     42          1           0        2.120797   -2.285326   -5.064226
     43          1           0        1.620083   -2.504810   -3.391634
     44          6           0        4.596813   -0.976333   -4.948228
     45          1           0        5.665464   -1.049690   -4.708472
     46          1           0        4.307160   -1.936644   -5.397867
     47          6           0        2.872997    0.262994   -6.281849
     48          1           0        2.505465   -0.660655   -6.746102
     49          1           0        2.716391    1.064960   -7.012185
     50          6           0       -1.739305    1.176886    3.449538
     51          1           0       -2.750941    1.002847    3.844494
     52          1           0       -1.064537    0.611515    4.102127
     53          6           0        4.363789    0.106370   -6.011860
     54          1           0        4.762312    1.064784   -5.639857
     55          6           0       -2.784108    1.188838    1.132811
     56          1           0       -2.529670    2.204973    0.811780
     57          1           0       -3.733592    1.241099    1.678761
     58          1           0       -2.961081    0.596435    0.231688
     59          6           0       -1.426190    2.678408    3.567198
     60          1           0       -0.385660    2.870706    3.277532
     61          1           0       -2.043116    3.236506    2.851884
     62          6           0       -1.692643    3.265662    4.966554
     63          1           0       -2.752755    3.107353    5.212350
     64          1           0       -1.552039    4.355997    4.922829
     65          6           0       -0.836924    2.719095    6.129285
     66          1           0       -0.972914    1.629198    6.176364
     67          6           0       -1.325120    3.301289    7.465603
     68          1           0       -2.383152    3.072910    7.638196
     69          1           0       -0.752879    2.897840    8.308836
     70          1           0       -1.213615    4.393212    7.480490
     71          6           0        0.661765    3.000188    5.936363
     72          1           0        1.056013    2.534711    5.027300
     73          1           0        1.244333    2.616367    6.781618
     74          1           0        0.849126    4.079713    5.866612
 ---------------------------------------------------------------------

 SCF Done:  E(RHF) =  -1124.07830561     A.U. after    9 cycles

 Alpha  occ. eigenvalues --  -20.55359 -11.27437 -11.23905 -11.22710 -11.22666
 Alpha  occ. eigenvalues --  -11.22410 -11.22374 -11.22329 -11.22143 -11.22060
 Alpha  occ. eigenvalues --  -11.22002 -11.21987 -11.21932 -11.21923 -11.21576
 Alpha  occ. eigenvalues --  -11.21540 -11.21493 -11.21467 -11.21465 -11.21399
 Alpha  occ. eigenvalues --  -11.21384 -11.21369 -11.21369 -11.21181 -11.21074
 Alpha  occ. eigenvalues --  -11.21033 -11.20943 -11.20904  -1.34662  -1.15881
 Alpha  occ. eigenvalues --   -1.13464  -1.09647  -1.07977  -1.06070  -1.05526
 Alpha  occ. eigenvalues --   -1.02671  -1.01293  -0.99567  -0.97731  -0.95836
 Alpha  occ. eigenvalues --   -0.92735  -0.92412  -0.91955  -0.91008  -0.90706
 Alpha  occ. eigenvalues --   -0.85968  -0.83923  -0.82516  -0.81786  -0.79058
 Alpha  occ. eigenvalues --   -0.76661  -0.76367  -0.75298  -0.72832  -0.71290
 Alpha  occ. eigenvalues --   -0.68992  -0.66894  -0.65074  -0.64304  -0.63744
 Alpha  occ. eigenvalues --   -0.63375  -0.63195  -0.61646  -0.61083  -0.60524
 Alpha  occ. eigenvalues --   -0.59320  -0.58727  -0.58447  -0.58042  -0.56886
 Alpha  occ. eigenvalues --   -0.56525  -0.56182  -0.55947  -0.55405  -0.54687
 Alpha  occ. eigenvalues --   -0.54289  -0.53680  -0.53473  -0.53150  -0.53055
 Alpha  occ. eigenvalues --   -0.52548  -0.52378  -0.51534  -0.51213  -0.50837
 Alpha  occ. eigenvalues --   -0.50313  -0.50241  -0.48546  -0.48445  -0.47777
 Alpha  occ. eigenvalues --   -0.47623  -0.47008  -0.46554  -0.46364  -0.45429
 Alpha  occ. eigenvalues --   -0.44968  -0.44806  -0.44210  -0.43905  -0.43654
 Alpha  occ. eigenvalues --   -0.43504  -0.42980  -0.42860  -0.42360  -0.41685
 Alpha  occ. eigenvalues --   -0.39806  -0.38538  -0.32791
 Alpha virt. eigenvalues --    0.18167   0.20197   0.21864   0.22511   0.22520
 Alpha virt. eigenvalues --    0.23396   0.23789   0.24291   0.24590   0.25564
 Alpha virt. eigenvalues --    0.26055   0.26670   0.27319   0.27492   0.28166

 Mulliken charges:
               1
     1  O   -0.765588
     2  H    0.433040
     3  C   -0.027807
     4  C   -0.157940
     5  H    0.150870
     6  C   -0.153684
     7  H    0.163614
     8  C   -0.154836
     9  H    0.155023
    10  C   -0.140781
    11  H    0.157798
    12  C   -0.298340
    13  H    0.151095
    14  H    0.163779
    15  C   -0.038292
    16  C   -0.316551
    17  H    0.165672
    18  H    0.158623
    19  C   -0.327830
    20  H    0.163979
    21  H    0.166005
    22  C   -0.338928
    23  H    0.160967
    24  H    0.168807
    25  C   -0.324469
    26  H    0.170202
    27  H    0.161225
    28  C   -0.147398
    29  H    0.156809
    30  C   -0.489861
    31  H    0.162466
    32  H    0.165159
    33  H    0.163905
    34  C    0.063486
    35  C   -0.326316
    36  H    0.160353
    37  H    0.169536
    38  C   -0.235066
    39  H    0.172003
    40  C   -0.480267
    41  H    0.162471
    42  H    0.168579
    43  H    0.165289
    44  C   -0.370713
    45  H    0.159905
    46  H    0.179325
    47  C   -0.327108
    48  H    0.171499
    49  H    0.178765
    50  C   -0.313531
    51  H    0.151926
    52  H    0.164514
    53  C    0.194460
    54  H    0.144553
    55  C   -0.486701
    56  H    0.157532
    57  H    0.157550
    58  H    0.162514
    59  C   -0.318531
    60  H    0.157043
    61  H    0.161132
    62  C   -0.297695
    63  H    0.151503
    64  H    0.150565
    65  C   -0.152302
    66  H    0.156846
    67  C   -0.471833
    68  H    0.157892
    69  H    0.157946
    70  H    0.152227
    71  C   -0.479158
    72  H    0.162442
    73  H    0.158471
    74  H    0.152161
 Sum of Mulliken charges =   0.00000

 Dipole moment (field-independent basis, Debye):
    X=              0.4380    Y=              0.0884    Z=              1.5759  Tot=              1.6380
 Quadrupole moment (field-independent basis, Debye-Ang):
   XX=           -171.5401   YY=           -181.5000   ZZ=           -203.3584
   XY=              0.7070   XZ=              3.5273   YZ=             -2.3698

 ESP charges:
               1
     1  O   -0.743719
     2  H    0.430819
     3  C    0.578771
     4  C   -0.054944
     5  H    0.010276
     6  C    0.028298
     7  H    0.025284
     8  C   -0.094565
     9  H    0.017886
    10  C    0.210159
    11  H   -0.111074
    12  C   -0.192731
    13  H    0.007103
    14  H    0.031373
    15  C    0.535359
    16  C   -0.237558
    17  H    0.058490
    18  H    0.056049
    19  C   -0.065189
    20  H    0.021300
    21  H    0.032834
    22  C   -0.069423
    23  H    0.011740
    24  H    0.029148
    25  C   -0.041164
    26  H    0.049407
    27  H    0.040856
    28  C    0.146179
    29  H   -0.027253
    30  C   -0.601248
    31  H    0.116152
    32  H    0.126891
    33  H    0.116288
    34  C   -0.150453
    35  C   -0.311999
    36  H    0.059920
    37  H    0.070800
    38  C   -0.267245
    39  H    0.146851
    40  C   -0.447179
    41  H    0.085216
    42  H    0.116264
    43  H    0.092631
    44  C   -0.261655
    45  H    0.079629
    46  H    0.099750
    47  C   -0.030815
    48  H    0.051709
    49  H    0.049430
    50  C   -0.173145
    51  H    0.047740
    52  H    0.011412
    53  C    0.392497
    54  H   -0.014130
    55  C   -0.382750
    56  H    0.065942
    57  H    0.100254
    58  H    0.075830
    59  C    0.088217
    60  H   -0.003138
    61  H    0.016812
    62  C   -0.272584
    63  H    0.057716
    64  H    0.050185
    65  C    0.486531
    66  H   -0.047540
    67  C   -0.504366
    68  H    0.102038
    69  H    0.115018
    70  H    0.116442
    71  C   -0.455359
    72  H    0.099828
    73  H    0.095120
    74  H    0.106782
 Sum of ESP charges =   0.00000

 Normal termination of Gaussian 09 at Tue Mar 21 12:56:19 2017.
