 Gaussian 09, Revision D.01,
 Gaussian 09:  EM64L-G09RevD.01 24-Apr-2013

 ----------------------------------------------------------------------
 #P HF/6-31G* SCF(Conver=6) NoSymm Test Pop=mk IOp(6/33=2) GFInput GFPr
 int
 ----------------------------------------------------------------------

 ----------------------------------------------
 MEP - Input generated by R.E.D.-III.x MOLECULE
 ----------------------------------------------
 Symbolic Z-matrix:
 Charge =  0 Multiplicity = 1

                          Input orientation:
 ---------------------------------------------------------------------
 Center     Atomic      Atomic             Coordinates (Angstroms)
 Number     Number       Type             X           Y           Z
 ---------------------------------------------------------------------
      1          8           0        0.426451   -3.382182    7.254888
      2          1           0        0.265898   -4.323941    7.109083
      3          6           0        1.506365    1.501502    0.000000
      4          6           0        1.103808    0.000000    0.000000
      5          1           0        0.000000    0.000000    0.000000
      6          6           0        1.516165   -0.792037    1.247610
      7          1           0        2.613004   -0.809227    1.319082
      8          6           0        0.933724   -0.115364    2.516201
      9          1           0       -0.159047   -0.242746    2.441497
     10          6           0        0.952242    1.927417   -1.403832
     11          1           0       -0.141869    1.958364   -1.293469
     12          6           0        0.825631    2.135403    1.230386
     13          1           0       -0.264302    2.092453    1.090221
     14          1           0        1.083946    3.194106    1.335970
     15          6           0        1.356274   -0.844283    3.840200
     16          6           0        1.535818   -0.512675   -1.382785
     17          1           0        0.962575   -1.389282   -1.700725
     18          1           0        2.591136   -0.812604   -1.372919
     19          6           0        1.205123    1.406995    2.536581
     20          1           0        2.264432    1.592818    2.743328
     21          1           0        0.652904    1.868786    3.362912
     22          6           0        1.311474    0.708903   -2.317169
     23          1           0        2.216003    0.922924   -2.898567
     24          1           0        0.517123    0.517902   -3.045729
     25          6           0        1.027807   -2.247101    1.161420
     26          1           0        1.633870   -2.806146    0.436102
     27          1           0        0.001233   -2.266620    0.758971
     28          6           0        1.391353    3.278768   -2.020311
     29          1           0        2.484649    3.245683   -2.135494
     30          6           0        3.037389    1.706541    0.058665
     31          1           0        3.281691    2.773078    0.108446
     32          1           0        3.487164    1.232216    0.934302
     33          1           0        3.540679    1.298339   -0.823113
     34          6           0        1.212815   -2.364031    3.676899
     35          6           0        0.400651   -0.387382    4.986342
     36          1           0       -0.632211   -0.449590    4.616201
     37          1           0        0.585237    0.667668    5.215995
     38          6           0        1.051727   -2.957491    2.484996
     39          1           0        0.930527   -4.040942    2.454890
     40          6           0        2.823691   -0.520254    4.228993
     41          1           0        2.935527    0.525160    4.533406
     42          1           0        3.162533   -1.135975    5.065814
     43          1           0        3.504678   -0.709136    3.393337
     44          6           0        1.259160   -3.191138    4.948263
     45          1           0        1.054568   -4.242524    4.708261
     46          1           0        2.261390   -3.159008    5.398572
     47          6           0        0.505074   -1.206054    6.281364
     48          1           0        1.491902   -1.088847    6.746318
     49          1           0       -0.230005   -0.848003    7.011110
     50          6           0        0.830856    3.480441   -3.453880
     51          1           0        1.262647    4.410792   -3.850024
     52          1           0        1.202507    2.680196   -4.106150
     53          6           0        0.272494   -2.686879    6.011382
     54          1           0       -0.756074   -2.825079    5.638940
     55          6           0        1.062244    4.498701   -1.139439
     56          1           0        0.009992    4.511305   -0.834065
     57          1           0        1.260569    5.429133   -1.684686
     58          1           0        1.667480    4.521220   -0.229729
     59          6           0       -0.699005    3.556869   -3.592216
     60          1           0       -1.149019    2.623032   -3.233597
     61          1           0       -1.087858    4.355185   -2.948685
     62          6           0       -1.131252    3.810451   -5.045985
     63          1           0       -0.712573    3.015875   -5.680708
     64          1           0       -0.669055    4.746795   -5.390918
     65          6           0       -2.652352    3.893073   -5.312746
     66          1           0       -2.759102    4.081237   -6.391408
     67          6           0       -3.319556    5.069817   -4.581478
     68          1           0       -2.809388    6.015672   -4.798699
     69          1           0       -4.366170    5.176876   -4.888706
     70          1           0       -3.311356    4.927464   -3.494664
     71          6           0       -3.379893    2.572083   -5.011983
     72          1           0       -2.913412    1.730811   -5.538126
     73          1           0       -4.428038    2.623497   -5.328240
     74          1           0       -3.373632    2.341472   -3.940393
 ---------------------------------------------------------------------

 SCF Done:  E(RHF) =  -1124.07855138     A.U. after    9 cycles

 Alpha  occ. eigenvalues --  -20.55353 -11.27431 -11.23896 -11.22701 -11.22646
 Alpha  occ. eigenvalues --  -11.22527 -11.22329 -11.22318 -11.22137 -11.22047
 Alpha  occ. eigenvalues --  -11.21990 -11.21951 -11.21924 -11.21913 -11.21557
 Alpha  occ. eigenvalues --  -11.21510 -11.21457 -11.21441 -11.21412 -11.21393
 Alpha  occ. eigenvalues --  -11.21360 -11.21338 -11.21336 -11.21173 -11.21061
 Alpha  occ. eigenvalues --  -11.21030 -11.20926 -11.20893  -1.34656  -1.15864
 Alpha  occ. eigenvalues --   -1.13449  -1.09579  -1.07960  -1.06069  -1.05533
 Alpha  occ. eigenvalues --   -1.02655  -1.01292  -0.99557  -0.97707  -0.95819
 Alpha  occ. eigenvalues --   -0.92703  -0.92406  -0.91941  -0.90927  -0.90683
 Alpha  occ. eigenvalues --   -0.85960  -0.84391  -0.82561  -0.81770  -0.78792
 Alpha  occ. eigenvalues --   -0.76611  -0.76195  -0.74673  -0.73052  -0.71480
 Alpha  occ. eigenvalues --   -0.68985  -0.66873  -0.65019  -0.64292  -0.63890
 Alpha  occ. eigenvalues --   -0.63221  -0.62477  -0.62112  -0.61162  -0.60471
 Alpha  occ. eigenvalues --   -0.59507  -0.58865  -0.58555  -0.58212  -0.57552
 Alpha  occ. eigenvalues --   -0.56534  -0.56319  -0.55633  -0.55133  -0.54693
 Alpha  occ. eigenvalues --   -0.54514  -0.53653  -0.53273  -0.52881  -0.52550
 Alpha  occ. eigenvalues --   -0.52359  -0.51998  -0.51639  -0.51271  -0.51101
 Alpha  occ. eigenvalues --   -0.50351  -0.50182  -0.48509  -0.48228  -0.48127
 Alpha  occ. eigenvalues --   -0.47223  -0.47075  -0.46724  -0.46264  -0.45329
 Alpha  occ. eigenvalues --   -0.45051  -0.44715  -0.44523  -0.44093  -0.43597
 Alpha  occ. eigenvalues --   -0.43382  -0.42986  -0.42767  -0.42404  -0.41557
 Alpha  occ. eigenvalues --   -0.39788  -0.38513  -0.32781
 Alpha virt. eigenvalues --    0.18180   0.20753   0.21909   0.22392   0.22527
 Alpha virt. eigenvalues --    0.23324   0.23906   0.24527   0.24624   0.25613
 Alpha virt. eigenvalues --    0.25969   0.26584   0.27242   0.27631   0.28278

 Mulliken charges:
               1
     1  O   -0.765593
     2  H    0.433031
     3  C   -0.027347
     4  C   -0.158003
     5  H    0.150736
     6  C   -0.153676
     7  H    0.163610
     8  C   -0.154817
     9  H    0.154963
    10  C   -0.140845
    11  H    0.156648
    12  C   -0.298233
    13  H    0.150914
    14  H    0.163609
    15  C   -0.038287
    16  C   -0.316448
    17  H    0.165412
    18  H    0.158386
    19  C   -0.327806
    20  H    0.163990
    21  H    0.165937
    22  C   -0.335177
    23  H    0.161001
    24  H    0.166428
    25  C   -0.324453
    26  H    0.170209
    27  H    0.161196
    28  C   -0.147563
    29  H    0.157014
    30  C   -0.489818
    31  H    0.162385
    32  H    0.165059
    33  H    0.163947
    34  C    0.063496
    35  C   -0.326286
    36  H    0.160340
    37  H    0.169530
    38  C   -0.235048
    39  H    0.171964
    40  C   -0.480315
    41  H    0.162483
    42  H    0.168566
    43  H    0.165309
    44  C   -0.370716
    45  H    0.159886
    46  H    0.179310
    47  C   -0.327102
    48  H    0.171496
    49  H    0.178741
    50  C   -0.309321
    51  H    0.152753
    52  H    0.160227
    53  C    0.194454
    54  H    0.144541
    55  C   -0.485987
    56  H    0.157035
    57  H    0.157466
    58  H    0.162315
    59  C   -0.321438
    60  H    0.158816
    61  H    0.160963
    62  C   -0.300090
    63  H    0.150870
    64  H    0.151447
    65  C   -0.146088
    66  H    0.155375
    67  C   -0.476218
    68  H    0.156993
    69  H    0.158266
    70  H    0.155712
    71  C   -0.476194
    72  H    0.156418
    73  H    0.158513
    74  H    0.155106
 Sum of Mulliken charges =   0.00000

 Dipole moment (field-independent basis, Debye):
    X=             -0.2646    Y=             -0.3957    Z=             -1.7023  Tot=              1.7676
 Quadrupole moment (field-independent basis, Debye-Ang):
   XX=           -181.4592   YY=           -173.7061   ZZ=           -201.7425
   XY=              2.0369   XZ=             -2.8153   YZ=              1.0232

 ESP charges:
               1
     1  O   -0.744596
     2  H    0.432313
     3  C    0.589944
     4  C   -0.015616
     5  H    0.003099
     6  C    0.015821
     7  H    0.028877
     8  C   -0.023252
     9  H    0.008572
    10  C    0.103226
    11  H   -0.089066
    12  C   -0.191630
    13  H    0.007393
    14  H    0.037087
    15  C    0.430255
    16  C   -0.239371
    17  H    0.056364
    18  H    0.053500
    19  C   -0.092039
    20  H    0.025632
    21  H    0.037279
    22  C   -0.059939
    23  H    0.014310
    24  H    0.037057
    25  C   -0.088364
    26  H    0.062523
    27  H    0.051273
    28  C    0.137889
    29  H   -0.010004
    30  C   -0.584436
    31  H    0.112999
    32  H    0.119980
    33  H    0.115502
    34  C   -0.095186
    35  C   -0.329997
    36  H    0.071087
    37  H    0.085984
    38  C   -0.254660
    39  H    0.143130
    40  C   -0.477995
    41  H    0.102294
    42  H    0.128925
    43  H    0.105686
    44  C   -0.305114
    45  H    0.087826
    46  H    0.111168
    47  C   -0.027792
    48  H    0.056487
    49  H    0.048727
    50  C   -0.197894
    51  H    0.051842
    52  H    0.013711
    53  C    0.402535
    54  H   -0.013513
    55  C   -0.387679
    56  H    0.066234
    57  H    0.099881
    58  H    0.080590
    59  C    0.250567
    60  H   -0.017134
    61  H   -0.013856
    62  C   -0.377068
    63  H    0.072483
    64  H    0.067913
    65  C    0.439476
    66  H   -0.045585
    67  C   -0.403704
    68  H    0.087338
    69  H    0.088331
    70  H    0.086899
    71  C   -0.416341
    72  H    0.088720
    73  H    0.092134
    74  H    0.090969
 Sum of ESP charges =   0.00000

 Normal termination of Gaussian 09 at Tue Mar 21 11:49:23 2017.
