 Gaussian 09, Revision D.01,
 Gaussian 09:  EM64L-G09RevD.01 24-Apr-2013

 ----------------------------------------------------------------------
 #P HF/6-31G* SCF(Conver=6) NoSymm Test Pop=mk IOp(6/33=2) GFInput GFPr
 int
 ----------------------------------------------------------------------

 ----------------------------------------------
 MEP - Input generated by R.E.D.-III.x MOLECULE
 ----------------------------------------------
 Symbolic Z-matrix:
 Charge =  0 Multiplicity = 1

                          Input orientation:
 ---------------------------------------------------------------------
 Center     Atomic      Atomic             Coordinates (Angstroms)
 Number     Number       Type             X           Y           Z
 ---------------------------------------------------------------------
      1          8           0        4.999272   -0.243063   -7.253661
      2          1           0        5.950777   -0.327028   -7.106930
      3          6           0        0.000000    0.000000    0.000000
      4          6           0        1.554526    0.000000    0.000000
      5          1           0        1.841792    1.065888    0.000000
      6          6           0        2.214318   -0.606130   -1.245764
      7          1           0        1.950091   -1.671055   -1.313115
      8          6           0        1.709907    0.124053   -2.517833
      9          1           0        2.112222    1.148385   -2.448313
     10          6           0       -0.273625    0.652635    1.399712
     11          1           0       -0.045613    1.724683    1.286756
     12          6           0       -0.436124    0.813862   -1.236041
     13          1           0       -0.111298    1.855973   -1.102179
     14          1           0       -1.525361    0.839419   -1.341621
     15          6           0        2.306858   -0.477834   -3.838488
     16          6           0        1.933257   -0.549730    1.383105
     17          1           0        2.936770   -0.244041    1.695529
     18          1           0        1.924223   -1.646754    1.379409
     19          6           0        0.168981    0.250607   -2.538569
     20          1           0       -0.281928   -0.727432   -2.737539
     21          1           0       -0.136813    0.896464   -3.369430
     22          6           0        0.828988    0.017547    2.316985
     23          1           0        0.397648   -0.773690    2.941540
     24          1           0        1.242842    0.760485    3.005182
     25          6           0        3.746004   -0.506783   -1.159259
     26          1           0        4.130654   -1.233373   -0.431200
     27          1           0        4.028004    0.481878   -0.760193
     28          6           0       -1.688197    0.557621    2.026719
     29          1           0       -1.893003   -0.507823    2.208336
     30          6           0       -0.589123   -1.428914   -0.049895
     31          1           0       -1.681897   -1.395285   -0.108931
     32          1           0       -0.237099   -1.992839   -0.917124
     33          1           0       -0.329899   -2.010751    0.839849
     34          6           0        3.812840   -0.726430   -3.673778
     35          6           0        2.108722    0.556176   -4.990520
     36          1           0        2.431697    1.541235   -4.625763
     37          1           0        1.041529    0.645070   -5.221126
     38          6           0        4.427267   -0.716978   -2.481659
     39          1           0        5.505718   -0.876458   -2.450342
     40          6           0        1.618938   -1.816058   -4.219819
     41          1           0        0.578946   -1.659031   -4.522783
     42          1           0        2.126417   -2.304230   -5.055514
     43          1           0        1.629814   -2.518942   -3.381021
     44          6           0        4.601087   -0.988633   -4.943670
     45          1           0        5.669810   -1.057972   -4.703032
     46          1           0        4.314318   -1.951705   -5.389236
     47          6           0        2.874382    0.239639   -6.283502
     48          1           0        2.509908   -0.687234   -6.743737
     49          1           0        2.715711    1.037762   -7.017597
     50          6           0       -1.736069    1.282814    3.406864
     51          1           0       -0.719431    1.500389    3.750173
     52          1           0       -2.219895    2.261868    3.279537
     53          6           0        4.365451    0.088800   -6.012049
     54          1           0        4.760811    1.050015   -5.643927
     55          6           0       -2.799888    1.102560    1.110617
     56          1           0       -2.572083    2.126643    0.789713
     57          1           0       -3.758534    1.130682    1.637114
     58          1           0       -2.939054    0.494751    0.213028
     59          6           0       -2.444133    0.511226    4.537662
     60          1           0       -1.927502   -0.447425    4.678636
     61          1           0       -2.306779    1.071037    5.474183
     62          6           0       -3.947536    0.268001    4.335579
     63          1           0       -4.112086   -0.372167    3.456910
     64          1           0       -4.429704    1.229860    4.108675
     65          6           0       -4.671858   -0.364306    5.542416
     66          1           0       -4.464864    0.266216    6.421114
     67          6           0       -4.171815   -1.784458    5.853590
     68          1           0       -3.104873   -1.803187    6.097064
     69          1           0       -4.711989   -2.210994    6.706480
     70          1           0       -4.331251   -2.449009    4.994282
     71          6           0       -6.192276   -0.368181    5.317325
     72          1           0       -6.572696    0.643857    5.137242
     73          1           0       -6.722174   -0.776634    6.185419
     74          1           0       -6.457032   -0.983303    4.447634
 ---------------------------------------------------------------------

 SCF Done:  E(RHF) =  -1124.07577796     A.U. after    9 cycles

 Alpha  occ. eigenvalues --  -20.55351 -11.27427 -11.23890 -11.22698 -11.22644
 Alpha  occ. eigenvalues --  -11.22507 -11.22307 -11.22294 -11.22134 -11.22054
 Alpha  occ. eigenvalues --  -11.22044 -11.21988 -11.21920 -11.21911 -11.21646
 Alpha  occ. eigenvalues --  -11.21558 -11.21471 -11.21457 -11.21438 -11.21390
 Alpha  occ. eigenvalues --  -11.21373 -11.21336 -11.21332 -11.21168 -11.21062
 Alpha  occ. eigenvalues --  -11.21048 -11.20917 -11.20801  -1.34654  -1.15850
 Alpha  occ. eigenvalues --   -1.13424  -1.09611  -1.07976  -1.06050  -1.05516
 Alpha  occ. eigenvalues --   -1.02653  -1.01349  -0.99578  -0.97717  -0.95789
 Alpha  occ. eigenvalues --   -0.92729  -0.92397  -0.91966  -0.91203  -0.90636
 Alpha  occ. eigenvalues --   -0.85954  -0.83534  -0.81944  -0.81675  -0.78563
 Alpha  occ. eigenvalues --   -0.76642  -0.76376  -0.75838  -0.73815  -0.71817
 Alpha  occ. eigenvalues --   -0.68979  -0.66829  -0.64877  -0.64325  -0.63703
 Alpha  occ. eigenvalues --   -0.63390  -0.62643  -0.61196  -0.61009  -0.59602
 Alpha  occ. eigenvalues --   -0.59429  -0.59248  -0.58725  -0.58284  -0.57608
 Alpha  occ. eigenvalues --   -0.56614  -0.55992  -0.55633  -0.55300  -0.54575
 Alpha  occ. eigenvalues --   -0.54535  -0.53633  -0.53215  -0.52944  -0.52555
 Alpha  occ. eigenvalues --   -0.52395  -0.52199  -0.51667  -0.51205  -0.51122
 Alpha  occ. eigenvalues --   -0.50440  -0.50236  -0.48815  -0.48387  -0.47633
 Alpha  occ. eigenvalues --   -0.47109  -0.47003  -0.46684  -0.46074  -0.45314
 Alpha  occ. eigenvalues --   -0.45179  -0.44587  -0.44335  -0.44240  -0.43851
 Alpha  occ. eigenvalues --   -0.43402  -0.43137  -0.42909  -0.42311  -0.41658
 Alpha  occ. eigenvalues --   -0.39775  -0.38404  -0.32778
 Alpha virt. eigenvalues --    0.18187   0.21318   0.22124   0.22301   0.22648
 Alpha virt. eigenvalues --    0.23353   0.24036   0.24479   0.24935   0.25635
 Alpha virt. eigenvalues --    0.26240   0.26451   0.27165   0.27480   0.27723

 Mulliken charges:
               1
     1  O   -0.765610
     2  H    0.433022
     3  C   -0.029434
     4  C   -0.158035
     5  H    0.150976
     6  C   -0.153833
     7  H    0.163546
     8  C   -0.154709
     9  H    0.155006
    10  C   -0.142529
    11  H    0.153106
    12  C   -0.298229
    13  H    0.151097
    14  H    0.164353
    15  C   -0.038450
    16  C   -0.316769
    17  H    0.165529
    18  H    0.158428
    19  C   -0.327778
    20  H    0.163855
    21  H    0.165930
    22  C   -0.333669
    23  H    0.160703
    24  H    0.166377
    25  C   -0.324446
    26  H    0.170116
    27  H    0.161188
    28  C   -0.138621
    29  H    0.157020
    30  C   -0.489707
    31  H    0.162870
    32  H    0.164869
    33  H    0.163751
    34  C    0.063527
    35  C   -0.326290
    36  H    0.160351
    37  H    0.169551
    38  C   -0.235021
    39  H    0.171929
    40  C   -0.480164
    41  H    0.162516
    42  H    0.168507
    43  H    0.165248
    44  C   -0.370682
    45  H    0.159867
    46  H    0.179306
    47  C   -0.327107
    48  H    0.171467
    49  H    0.178745
    50  C   -0.319829
    51  H    0.165679
    52  H    0.154892
    53  C    0.194469
    54  H    0.144541
    55  C   -0.489005
    56  H    0.153943
    57  H    0.166606
    58  H    0.159208
    59  C   -0.307890
    60  H    0.154631
    61  H    0.152028
    62  C   -0.301802
    63  H    0.152599
    64  H    0.151568
    65  C   -0.146841
    66  H    0.151347
    67  C   -0.476637
    68  H    0.162750
    69  H    0.158499
    70  H    0.151388
    71  C   -0.472313
    72  H    0.157793
    73  H    0.158258
    74  H    0.152449
 Sum of Mulliken charges =   0.00000

 Dipole moment (field-independent basis, Debye):
    X=              0.5366    Y=              0.2662    Z=              1.7309  Tot=              1.8316
 Quadrupole moment (field-independent basis, Debye-Ang):
   XX=           -172.4453   YY=           -181.1968   ZZ=           -201.6685
   XY=              0.3905   XZ=              3.6690   YZ=             -0.7279

 ESP charges:
               1
     1  O   -0.743814
     2  H    0.431256
     3  C    0.652220
     4  C   -0.072534
     5  H    0.011399
     6  C    0.004350
     7  H    0.025647
     8  C   -0.093006
     9  H    0.018217
    10  C    0.018167
    11  H   -0.042887
    12  C   -0.163788
    13  H   -0.003056
    14  H    0.019984
    15  C    0.538781
    16  C   -0.112399
    17  H    0.035243
    18  H    0.033096
    19  C   -0.071106
    20  H    0.019464
    21  H    0.031908
    22  C   -0.216214
    23  H    0.051952
    24  H    0.079706
    25  C   -0.017743
    26  H    0.041023
    27  H    0.035777
    28  C    0.156689
    29  H    0.008187
    30  C   -0.605857
    31  H    0.110528
    32  H    0.126820
    33  H    0.122730
    34  C   -0.148281
    35  C   -0.321691
    36  H    0.062251
    37  H    0.074174
    38  C   -0.270791
    39  H    0.146639
    40  C   -0.449670
    41  H    0.086327
    42  H    0.116762
    43  H    0.093839
    44  C   -0.265456
    45  H    0.080831
    46  H    0.100821
    47  C   -0.027822
    48  H    0.051388
    49  H    0.049454
    50  C   -0.116089
    51  H    0.016923
    52  H    0.056678
    53  C    0.391943
    54  H   -0.013938
    55  C   -0.372978
    56  H    0.072768
    57  H    0.078753
    58  H    0.082374
    59  C   -0.119354
    60  H    0.053253
    61  H    0.041162
    62  C   -0.153984
    63  H    0.056640
    64  H    0.059539
    65  C    0.365140
    66  H   -0.025012
    67  C   -0.380091
    68  H    0.074057
    69  H    0.087738
    70  H    0.093707
    71  C   -0.494686
    72  H    0.101215
    73  H    0.123091
    74  H    0.111634
 Sum of ESP charges =   0.00000

 Normal termination of Gaussian 09 at Tue Mar 21 12:02:22 2017.
