 Gaussian 09, Revision D.01,
 Gaussian 09:  EM64L-G09RevD.01 24-Apr-2013

 ----------------------------------------------------------------------
 #P HF/6-31G* SCF(Conver=6) NoSymm Test Pop=mk IOp(6/33=2) GFInput GFPr
 int
 ----------------------------------------------------------------------

 ----------------------------------------------
 MEP - Input generated by R.E.D.-III.x MOLECULE
 ----------------------------------------------
 Symbolic Z-matrix:
 Charge =  0 Multiplicity = 1

                          Input orientation:
 ---------------------------------------------------------------------
 Center     Atomic      Atomic             Coordinates (Angstroms)
 Number     Number       Type             X           Y           Z
 ---------------------------------------------------------------------
      1          8           0       -3.735603   -3.612683   -4.120307
      2          1           0       -3.884535   -4.454362   -3.669381
      3          6           0        1.601667    2.064041    0.000000
      4          6           0        1.327231    0.608377    0.472293
      5          1           0        2.118064    0.000000    0.000000
      6          6           0        0.000000    0.000000    0.000000
      7          1           0       -0.833735    0.578280    0.422993
      8          6           0       -0.080932    0.048957   -1.548031
      9          1           0        0.697414   -0.645570   -1.905484
     10          6           0        2.986968    2.319106    0.691352
     11          1           0        3.726617    1.744412    0.111230
     12          6           0        1.596526    2.027119   -1.542623
     13          1           0        2.441677    1.410387   -1.881413
     14          1           0        1.746028    3.021811   -1.974116
     15          6           0       -1.437661   -0.512467   -2.101899
     16          6           0        1.639507    0.630930    1.975554
     17          1           0        1.892066   -0.359934    2.366045
     18          1           0        0.771369    0.983322    2.546347
     19          6           0        0.280467    1.446872   -2.100872
     20          1           0       -0.529422    2.152286   -1.886533
     21          1           0        0.358551    1.402757   -3.193103
     22          6           0        2.826186    1.626677    2.088726
     23          1           0        2.634694    2.376068    2.866106
     24          1           0        3.746992    1.111592    2.378144
     25          6           0       -0.141995   -1.452092    0.484369
     26          1           0       -0.356288   -1.471388    1.561229
     27          1           0        0.823219   -1.973280    0.370595
     28          6           0        3.536001    3.765525    0.804071
     29          1           0        2.841361    4.339433    1.436519
     30          6           0        0.548182    3.065355    0.527311
     31          1           0        0.737905    4.069240    0.133305
     32          1           0       -0.468465    2.791271    0.235094
     33          1           0        0.561670    3.137512    1.619125
     34          6           0       -1.804213   -1.817385   -1.381071
     35          6           0       -1.262212   -0.829200   -3.619937
     36          1           0       -0.327231   -1.392700   -3.746322
     37          1           0       -1.138285    0.106669   -4.175591
     38          6           0       -1.205458   -2.218367   -0.249915
     39          1           0       -1.504172   -3.171646    0.187710
     40          6           0       -2.596518    0.503297   -1.915495
     41          1           0       -2.465714    1.381167   -2.556033
     42          1           0       -3.562667    0.060967   -2.170692
     43          1           0       -2.661356    0.842561   -0.877012
     44          6           0       -2.896975   -2.658940   -2.013765
     45          1           0       -3.000265   -3.600927   -1.459801
     46          1           0       -3.868170   -2.147812   -1.952037
     47          6           0       -2.407099   -1.635907   -4.249700
     48          1           0       -3.344665   -1.066106   -4.242748
     49          1           0       -2.179412   -1.852246   -5.299666
     50          6           0        4.908835    3.762572    1.521923
     51          1           0        4.843736    3.146186    2.425756
     52          1           0        5.646497    3.268649    0.870617
     53          6           0       -2.631731   -2.942229   -3.499473
     54          1           0       -1.726795   -3.565855   -3.588646
     55          6           0        3.643890    4.481437   -0.553884
     56          1           0        4.261049    3.903489   -1.253403
     57          1           0        4.102522    5.468764   -0.445943
     58          1           0        2.667666    4.633977   -1.019113
     59          6           0        5.442500    5.143790    1.937233
     60          1           0        5.610537    5.766143    1.051129
     61          1           0        4.674162    5.654213    2.533919
     62          6           0        6.747278    5.041401    2.744200
     63          1           0        7.487925    4.492085    2.144925
     64          1           0        6.562122    4.424037    3.635153
     65          6           0        7.385925    6.373640    3.201586
     66          1           0        8.290332    6.096471    3.763314
     67          6           0        6.482574    7.164365    4.162428
     68          1           0        6.162647    6.546070    5.009500
     69          1           0        7.010818    8.035738    4.566039
     70          1           0        5.581681    7.533212    3.658628
     71          6           0        7.839533    7.250636    2.022621
     72          1           0        8.489976    6.693709    1.337905
     73          1           0        8.399150    8.123107    2.378838
     74          1           0        6.986798    7.624473    1.444213
 ---------------------------------------------------------------------

 SCF Done:  E(RHF) =  -1124.07889832     A.U. after    9 cycles

 Alpha  occ. eigenvalues --  -20.55350 -11.27427 -11.23886 -11.22695 -11.22667
 Alpha  occ. eigenvalues --  -11.22521 -11.22342 -11.22301 -11.22133 -11.22055
 Alpha  occ. eigenvalues --  -11.22039 -11.21983 -11.21918 -11.21909 -11.21548
 Alpha  occ. eigenvalues --  -11.21518 -11.21441 -11.21433 -11.21418 -11.21389
 Alpha  occ. eigenvalues --  -11.21341 -11.21340 -11.21302 -11.21167 -11.21027
 Alpha  occ. eigenvalues --  -11.21020 -11.20915 -11.20815  -1.34653  -1.15847
 Alpha  occ. eigenvalues --   -1.13426  -1.09585  -1.07983  -1.06070  -1.05571
 Alpha  occ. eigenvalues --   -1.02649  -1.01348  -0.99563  -0.97725  -0.95786
 Alpha  occ. eigenvalues --   -0.92712  -0.92385  -0.91946  -0.90923  -0.90643
 Alpha  occ. eigenvalues --   -0.85955  -0.84119  -0.82347  -0.81733  -0.78637
 Alpha  occ. eigenvalues --   -0.76595  -0.76274  -0.74628  -0.73672  -0.71740
 Alpha  occ. eigenvalues --   -0.68972  -0.66832  -0.65059  -0.64307  -0.63812
 Alpha  occ. eigenvalues --   -0.63309  -0.62369  -0.62275  -0.60906  -0.60236
 Alpha  occ. eigenvalues --   -0.59519  -0.58896  -0.58508  -0.58304  -0.57839
 Alpha  occ. eigenvalues --   -0.56522  -0.56229  -0.55606  -0.55222  -0.54710
 Alpha  occ. eigenvalues --   -0.54537  -0.53648  -0.53296  -0.52757  -0.52514
 Alpha  occ. eigenvalues --   -0.52344  -0.51728  -0.51468  -0.51161  -0.50734
 Alpha  occ. eigenvalues --   -0.50597  -0.50192  -0.48564  -0.48324  -0.47843
 Alpha  occ. eigenvalues --   -0.47101  -0.47041  -0.46592  -0.46085  -0.45355
 Alpha  occ. eigenvalues --   -0.45170  -0.44935  -0.44469  -0.44122  -0.43720
 Alpha  occ. eigenvalues --   -0.43454  -0.43286  -0.42936  -0.42407  -0.41530
 Alpha  occ. eigenvalues --   -0.39773  -0.38395  -0.32776
 Alpha virt. eigenvalues --    0.18189   0.21220   0.21958   0.22250   0.22573
 Alpha virt. eigenvalues --    0.23407   0.24170   0.24666   0.24931   0.25950
 Alpha virt. eigenvalues --    0.26053   0.26326   0.26943   0.27561   0.28120

 Mulliken charges:
               1
     1  O   -0.765603
     2  H    0.433023
     3  C   -0.029022
     4  C   -0.158235
     5  H    0.151044
     6  C   -0.153675
     7  H    0.163571
     8  C   -0.154749
     9  H    0.155027
    10  C   -0.134983
    11  H    0.152563
    12  C   -0.298418
    13  H    0.151234
    14  H    0.163782
    15  C   -0.038449
    16  C   -0.316264
    17  H    0.165403
    18  H    0.158238
    19  C   -0.327687
    20  H    0.163849
    21  H    0.165918
    22  C   -0.335860
    23  H    0.160030
    24  H    0.167641
    25  C   -0.324501
    26  H    0.170172
    27  H    0.161245
    28  C   -0.149322
    29  H    0.152386
    30  C   -0.489013
    31  H    0.162802
    32  H    0.164703
    33  H    0.163853
    34  C    0.063519
    35  C   -0.326271
    36  H    0.160352
    37  H    0.169522
    38  C   -0.235033
    39  H    0.171921
    40  C   -0.480178
    41  H    0.162483
    42  H    0.168512
    43  H    0.165289
    44  C   -0.370666
    45  H    0.159867
    46  H    0.179314
    47  C   -0.327097
    48  H    0.171469
    49  H    0.178728
    50  C   -0.307218
    51  H    0.164953
    52  H    0.147577
    53  C    0.194441
    54  H    0.144542
    55  C   -0.484944
    56  H    0.153011
    57  H    0.163475
    58  H    0.162516
    59  C   -0.314761
    60  H    0.159605
    61  H    0.154026
    62  C   -0.300806
    63  H    0.151611
    64  H    0.151059
    65  C   -0.146370
    66  H    0.155388
    67  C   -0.476187
    68  H    0.156571
    69  H    0.158261
    70  H    0.156193
    71  C   -0.476303
    72  H    0.156930
    73  H    0.158499
    74  H    0.155497
 Sum of Mulliken charges =   0.00000

 Dipole moment (field-independent basis, Debye):
    X=              1.0893    Y=             -0.2918    Z=              1.4022  Tot=              1.7994
 Quadrupole moment (field-independent basis, Debye-Ang):
   XX=           -186.4718   YY=           -175.4926   ZZ=           -190.7534
   XY=             -1.0338   XZ=             -7.8950   YZ=             -4.1492

 ESP charges:
               1
     1  O   -0.755560
     2  H    0.432591
     3  C    0.546346
     4  C    0.002352
     5  H    0.007333
     6  C    0.030887
     7  H    0.024636
     8  C   -0.067264
     9  H    0.012491
    10  C   -0.088958
    11  H   -0.005771
    12  C   -0.165077
    13  H    0.004068
    14  H    0.026664
    15  C    0.475798
    16  C   -0.204874
    17  H    0.053437
    18  H    0.046914
    19  C   -0.053753
    20  H    0.022209
    21  H    0.027798
    22  C   -0.089255
    23  H    0.037766
    24  H    0.047061
    25  C   -0.078232
    26  H    0.054170
    27  H    0.044726
    28  C    0.175398
    29  H   -0.011535
    30  C   -0.580007
    31  H    0.119421
    32  H    0.118467
    33  H    0.129706
    34  C   -0.134674
    35  C   -0.341713
    36  H    0.072730
    37  H    0.085852
    38  C   -0.237604
    39  H    0.141442
    40  C   -0.471312
    41  H    0.094841
    42  H    0.126428
    43  H    0.103714
    44  C   -0.294019
    45  H    0.083879
    46  H    0.108318
    47  C   -0.034997
    48  H    0.057703
    49  H    0.050130
    50  C   -0.090992
    51  H   -0.006319
    52  H    0.024763
    53  C    0.433318
    54  H   -0.022257
    55  C   -0.461187
    56  H    0.101498
    57  H    0.101186
    58  H    0.108636
    59  C    0.252021
    60  H   -0.024571
    61  H   -0.045090
    62  C   -0.347466
    63  H    0.052602
    64  H    0.065104
    65  C    0.452391
    66  H   -0.046266
    67  C   -0.436799
    68  H    0.094889
    69  H    0.096499
    70  H    0.097508
    71  C   -0.449359
    72  H    0.100294
    73  H    0.099753
    74  H    0.099174
 Sum of ESP charges =   0.00000

 Normal termination of Gaussian 09 at Tue Mar 21 11:53:41 2017.
