 Gaussian 09, Revision D.01,
 Gaussian 09:  EM64L-G09RevD.01 24-Apr-2013

 ----------------------------------------------------------------------
 #P HF/6-31G* SCF(Conver=6) NoSymm Test Pop=mk IOp(6/33=2) GFInput GFPr
 int
 ----------------------------------------------------------------------

 ----------------------------------------------
 MEP - Input generated by R.E.D.-III.x MOLECULE
 ----------------------------------------------
 Symbolic Z-matrix:
 Charge =  0 Multiplicity = 1

                          Input orientation:
 ---------------------------------------------------------------------
 Center     Atomic      Atomic             Coordinates (Angstroms)
 Number     Number       Type             X           Y           Z
 ---------------------------------------------------------------------
      1          8           0        4.211230    6.556761    4.118449
      2          1           0        4.989838    6.907392    3.665928
      3          6           0        0.000000    0.000000    0.000000
      4          6           0        1.345641    0.619449   -0.472313
      5          1           0        2.127786    0.000000    0.000000
      6          6           0        1.612905    2.054590    0.000000
      7          1           0        0.848240    2.722000   -0.422167
      8          6           0        1.547279    2.120629    1.548182
      9          1           0        2.410845    1.534744    1.904437
     10          6           0        0.088491   -1.405235   -0.692630
     11          1           0        0.826167   -1.983349   -0.113352
     12          6           0        0.035778    0.012389    1.542622
     13          1           0        0.839245   -0.658382    1.880070
     14          1           0       -0.892627   -0.374137    1.974664
     15          6           0        1.762021    3.572869    2.102660
     16          6           0        1.400095    0.311532   -1.975704
     17          1           0        2.422935    0.305898   -2.365412
     18          1           0        0.849025    1.069162   -2.546627
     19          6           0        0.279959    1.429481    2.102011
     20          1           0       -0.601380    2.043922    1.889417
     21          1           0        0.343160    1.363430    3.194096
     22          6           0        0.720219   -1.080248   -2.090077
     23          1           0       -0.054272   -1.073814   -2.866437
     24          1           0        1.441592   -1.849419   -2.381650
     25          6           0        2.986027    2.546492   -0.485619
     26          1           0        2.951593    2.758907   -1.562472
     27          1           0        3.727027    1.737614   -0.372326
     28          6           0       -1.180525   -2.289747   -0.806111
     29          1           0       -1.906824   -1.755681   -1.437985
     30          6           0       -1.226931    0.779900   -0.526174
     31          1           0       -2.155073    0.350493   -0.134822
     32          1           0       -1.209051    1.831773   -0.230546
     33          1           0       -1.292183    0.752808   -1.618166
     34          6           0        2.936810    4.247187    1.380191
     35          6           0        2.115025    3.478857    3.619947
     36          1           0        2.889986    2.709629    3.744174
     37          1           0        1.238846    3.129824    4.177135
     38          6           0        3.470314    3.764817    0.248168
     39          1           0        4.321199    4.287373   -0.190467
     40          6           0        0.493986    4.449260    1.919193
     41          1           0       -0.324133    4.108883    2.561761
     42          1           0        0.687933    5.494203    2.173592
     43          1           0        0.146644    4.429264    0.881552
     44          6           0        3.487422    5.511851    2.012635
     45          1           0        4.374710    5.842157    1.457213
     46          1           0        2.754779    6.329111    1.952824
     47          6           0        2.619131    4.785572    4.249697
     48          1           0        1.837703    5.555693    4.244866
     49          1           0        2.886519    4.616776    5.299025
     50          6           0       -0.842780   -3.619328   -1.526362
     51          1           0       -0.287396   -3.400993   -2.446116
     52          1           0       -0.157976   -4.195515   -0.887235
     53          6           0        3.829638    5.322916    3.497591
     54          1           0        4.655642    4.597744    3.584853
     55          6           0       -1.849604   -2.571233    0.550704
     56          1           0       -1.142293   -3.039395    1.247061
     57          1           0       -2.702011   -3.247808    0.438912
     58          1           0       -2.226469   -1.660857    1.021595
     59          6           0       -2.056994   -4.482824   -1.909304
     60          1           0       -2.556946   -4.864883   -1.011964
     61          1           0       -2.795373   -3.844224   -2.414854
     62          6           0       -1.722841   -5.656324   -2.848898
     63          1           0       -1.294165   -5.250015   -3.776507
     64          1           0       -2.660974   -6.151792   -3.140183
     65          6           0       -0.761381   -6.731736   -2.299380
     66          1           0        0.182484   -6.240248   -2.023019
     67          6           0       -0.440008   -7.763975   -3.392073
     68          1           0       -0.008304   -7.285867   -4.278933
     69          1           0        0.274448   -8.514002   -3.033916
     70          1           0       -1.347681   -8.294056   -3.708373
     71          6           0       -1.314712   -7.428490   -1.046152
     72          1           0       -1.477992   -6.727303   -0.221326
     73          1           0       -0.622674   -8.200073   -0.689928
     74          1           0       -2.273451   -7.917192   -1.263679
 ---------------------------------------------------------------------

 SCF Done:  E(RHF) =  -1124.07905761     A.U. after    9 cycles

 Alpha  occ. eigenvalues --  -20.55358 -11.27435 -11.23900 -11.22706 -11.22690
 Alpha  occ. eigenvalues --  -11.22402 -11.22376 -11.22316 -11.22141 -11.22077
 Alpha  occ. eigenvalues --  -11.22051 -11.21996 -11.21929 -11.21919 -11.21565
 Alpha  occ. eigenvalues --  -11.21559 -11.21503 -11.21458 -11.21457 -11.21397
 Alpha  occ. eigenvalues --  -11.21364 -11.21351 -11.21322 -11.21178 -11.21031
 Alpha  occ. eigenvalues --  -11.21028 -11.20934 -11.20846  -1.34660  -1.15864
 Alpha  occ. eigenvalues --   -1.13444  -1.09681  -1.08004  -1.06074  -1.05564
 Alpha  occ. eigenvalues --   -1.02663  -1.01346  -0.99581  -0.97747  -0.95805
 Alpha  occ. eigenvalues --   -0.92741  -0.92395  -0.91963  -0.90976  -0.90659
 Alpha  occ. eigenvalues --   -0.85966  -0.83741  -0.82266  -0.81737  -0.79030
 Alpha  occ. eigenvalues --   -0.76674  -0.76360  -0.74721  -0.73756  -0.71794
 Alpha  occ. eigenvalues --   -0.68979  -0.66843  -0.65140  -0.64320  -0.64155
 Alpha  occ. eigenvalues --   -0.63337  -0.62321  -0.61665  -0.60891  -0.60554
 Alpha  occ. eigenvalues --   -0.59368  -0.58920  -0.58408  -0.58093  -0.57373
 Alpha  occ. eigenvalues --   -0.56388  -0.56199  -0.55777  -0.55389  -0.54597
 Alpha  occ. eigenvalues --   -0.54167  -0.54040  -0.53504  -0.53108  -0.52897
 Alpha  occ. eigenvalues --   -0.52407  -0.52333  -0.51463  -0.51232  -0.50402
 Alpha  occ. eigenvalues --   -0.50263  -0.49777  -0.48843  -0.48361  -0.47853
 Alpha  occ. eigenvalues --   -0.47345  -0.47018  -0.46828  -0.46096  -0.45582
 Alpha  occ. eigenvalues --   -0.45164  -0.44731  -0.44300  -0.43970  -0.43598
 Alpha  occ. eigenvalues --   -0.43443  -0.43248  -0.42932  -0.42569  -0.41628
 Alpha  occ. eigenvalues --   -0.39794  -0.38453  -0.32787
 Alpha virt. eigenvalues --    0.18177   0.21111   0.22062   0.22296   0.22569
 Alpha virt. eigenvalues --    0.23449   0.24123   0.24626   0.24933   0.25897
 Alpha virt. eigenvalues --    0.26070   0.26506   0.27144   0.27407   0.27883

 Mulliken charges:
               1
     1  O   -0.765593
     2  H    0.433033
     3  C   -0.029147
     4  C   -0.158267
     5  H    0.151036
     6  C   -0.153675
     7  H    0.163632
     8  C   -0.154758
     9  H    0.155024
    10  C   -0.134770
    11  H    0.152277
    12  C   -0.298426
    13  H    0.151254
    14  H    0.163737
    15  C   -0.038358
    16  C   -0.316309
    17  H    0.165438
    18  H    0.158304
    19  C   -0.327701
    20  H    0.163903
    21  H    0.165952
    22  C   -0.335581
    23  H    0.160128
    24  H    0.167290
    25  C   -0.324497
    26  H    0.170182
    27  H    0.161225
    28  C   -0.149252
    29  H    0.152473
    30  C   -0.489005
    31  H    0.162885
    32  H    0.164765
    33  H    0.163873
    34  C    0.063537
    35  C   -0.326263
    36  H    0.160349
    37  H    0.169523
    38  C   -0.235052
    39  H    0.171961
    40  C   -0.480306
    41  H    0.162497
    42  H    0.168563
    43  H    0.165290
    44  C   -0.370721
    45  H    0.159886
    46  H    0.179326
    47  C   -0.327109
    48  H    0.171497
    49  H    0.178745
    50  C   -0.311593
    51  H    0.164342
    52  H    0.151131
    53  C    0.194462
    54  H    0.144549
    55  C   -0.485692
    56  H    0.152467
    57  H    0.164530
    58  H    0.162925
    59  C   -0.313020
    60  H    0.159098
    61  H    0.154354
    62  C   -0.298439
    63  H    0.151176
    64  H    0.150843
    65  C   -0.151845
    66  H    0.156876
    67  C   -0.471873
    68  H    0.157481
    69  H    0.157984
    70  H    0.152339
    71  C   -0.476811
    72  H    0.161612
    73  H    0.158261
    74  H    0.152050
 Sum of Mulliken charges =   0.00000

 Dipole moment (field-independent basis, Debye):
    X=              0.5395    Y=             -0.8518    Z=             -1.3507  Tot=              1.6855
 Quadrupole moment (field-independent basis, Debye-Ang):
   XX=           -173.2421   YY=           -192.1623   ZZ=           -191.2420
   XY=              1.2570   XZ=             -4.2047   YZ=            -12.4473

 ESP charges:
               1
     1  O   -0.751048
     2  H    0.431363
     3  C    0.570624
     4  C   -0.002990
     5  H    0.005747
     6  C    0.041750
     7  H    0.014554
     8  C   -0.004334
     9  H   -0.009399
    10  C   -0.157624
    11  H    0.013015
    12  C   -0.196489
    13  H    0.011678
    14  H    0.039219
    15  C    0.503345
    16  C   -0.211670
    17  H    0.054926
    18  H    0.047643
    19  C   -0.071440
    20  H    0.024691
    21  H    0.030802
    22  C   -0.059189
    23  H    0.033036
    24  H    0.041769
    25  C   -0.061240
    26  H    0.048901
    27  H    0.037961
    28  C    0.119828
    29  H    0.004625
    30  C   -0.610106
    31  H    0.129169
    32  H    0.125031
    33  H    0.139582
    34  C   -0.152369
    35  C   -0.320477
    36  H    0.061461
    37  H    0.072429
    38  C   -0.248548
    39  H    0.142677
    40  C   -0.493823
    41  H    0.094376
    42  H    0.132651
    43  H    0.104287
    44  C   -0.270327
    45  H    0.081656
    46  H    0.098428
    47  C   -0.019206
    48  H    0.050510
    49  H    0.045610
    50  C    0.075851
    51  H   -0.035743
    52  H    0.000059
    53  C    0.416633
    54  H   -0.022639
    55  C   -0.430086
    56  H    0.093748
    57  H    0.096420
    58  H    0.105529
    59  C    0.026133
    60  H    0.007603
    61  H    0.001540
    62  C   -0.267028
    63  H    0.055084
    64  H    0.052387
    65  C    0.530903
    66  H   -0.074620
    67  C   -0.532748
    68  H    0.107544
    69  H    0.122173
    70  H    0.116870
    71  C   -0.442543
    72  H    0.093159
    73  H    0.090784
    74  H    0.099918
 Sum of ESP charges =   0.00000

 Normal termination of Gaussian 09 at Tue Mar 21 13:16:39 2017.
