 Gaussian 09, Revision D.01,
 Gaussian 09:  EM64L-G09RevD.01 24-Apr-2013

 ----------------------------------------------------------------------
 #P HF/6-31G* SCF(Conver=6) NoSymm Test Pop=mk IOp(6/33=2) GFInput GFPr
 int
 ----------------------------------------------------------------------

 ----------------------------------------------
 MEP - Input generated by R.E.D.-III.x MOLECULE
 ----------------------------------------------
 Symbolic Z-matrix:
 Charge =  0 Multiplicity = 1

                          Input orientation:
 ---------------------------------------------------------------------
 Center     Atomic      Atomic             Coordinates (Angstroms)
 Number     Number       Type             X           Y           Z
 ---------------------------------------------------------------------
      1          8           0        4.994304   -0.256827   -7.256376
      2          1           0        5.945732   -0.343288   -7.110599
      3          6           0        0.000000    0.000000    0.000000
      4          6           0        1.554466    0.000000    0.000000
      5          1           0        1.841615    1.065885    0.000000
      6          6           0        2.213841   -0.606805   -1.245627
      7          1           0        1.948735   -1.671524   -1.312157
      8          6           0        1.709643    0.123126   -2.518101
      9          1           0        2.113634    1.146853   -2.449573
     10          6           0       -0.273476    0.651973    1.399821
     11          1           0       -0.043829    1.723765    1.287623
     12          6           0       -0.435699    0.814856   -1.235326
     13          1           0       -0.110321    1.856718   -1.100763
     14          1           0       -1.524909    0.841051   -1.340958
     15          6           0        2.304719   -0.480664   -3.838724
     16          6           0        1.933327   -0.550104    1.383033
     17          1           0        2.936234   -0.243182    1.696176
     18          1           0        1.925897   -1.647172    1.378434
     19          6           0        0.168762    0.251983   -2.538336
     20          1           0       -0.283470   -0.725320   -2.737818
     21          1           0       -0.136298    0.898855   -3.368665
     22          6           0        0.827803    0.014617    2.316971
     23          1           0        0.395488   -0.778502    2.938384
     24          1           0        1.240245    0.755478    3.008237
     25          6           0        3.745568   -0.508773   -1.160195
     26          1           0        4.130023   -1.234427   -0.431125
     27          1           0        4.028825    0.480342   -0.763196
     28          6           0       -1.687692    0.558935    2.027491
     29          1           0       -1.894740   -0.506542    2.206060
     30          6           0       -0.589294   -1.428875   -0.050888
     31          1           0       -1.682106   -1.395192   -0.109571
     32          1           0       -0.237744   -1.992370   -0.918650
     33          1           0       -0.329804   -2.011411    0.838341
     34          6           0        3.810228   -0.732184   -3.674542
     35          6           0        2.108398    0.553146   -4.991158
     36          1           0        2.434363    1.537597   -4.627380
     37          1           0        1.041207    0.644761   -5.220733
     38          6           0        4.425512   -0.722167   -2.482848
     39          1           0        5.503682   -0.883647   -2.452106
     40          6           0        1.613684   -1.817616   -4.219097
     41          1           0        0.574848   -1.658347   -4.524896
     42          1           0        2.121564   -2.309089   -5.052602
     43          1           0        1.620473   -2.518896   -3.378948
     44          6           0        4.597002   -0.997553   -4.944694
     45          1           0        5.665769   -1.068721   -4.704801
     46          1           0        4.307968   -1.960670   -5.388711
     47          6           0        2.871860    0.233374   -6.284584
     48          1           0        2.504469   -0.692966   -6.743580
     49          1           0        2.714601    1.031192   -7.019317
     50          6           0       -1.732156    1.281281    3.409919
     51          1           0       -0.716700    1.533038    3.732960
     52          1           0       -2.250580    2.243795    3.294017
     53          6           0        4.362851    0.078799   -6.014561
     54          1           0        4.761286    1.039533   -5.648536
     55          6           0       -2.799745    1.107953    1.114383
     56          1           0       -2.572747    2.133681    0.798106
     57          1           0       -3.757666    1.133567    1.642863
     58          1           0       -2.940061    0.504285    0.214115
     59          6           0       -2.394436    0.487735    4.554065
     60          1           0       -1.850587   -0.457954    4.681420
     61          1           0       -2.247820    1.051421    5.484445
     62          6           0       -3.892988    0.202708    4.365026
     63          1           0       -4.037301   -0.394969    3.455123
     64          1           0       -4.412709    1.156073    4.189887
     65          6           0       -4.602470   -0.527729    5.530549
     66          1           0       -5.649256   -0.649915    5.215012
     67          6           0       -4.618167    0.296261    6.828890
     68          1           0       -5.025008    1.300188    6.659467
     69          1           0       -5.237618   -0.190595    7.590799
     70          1           0       -3.612748    0.409331    7.250377
     71          6           0       -4.039073   -1.937148    5.777611
     72          1           0       -4.033251   -2.531844    4.856488
     73          1           0       -4.643605   -2.474065    6.517523
     74          1           0       -3.012197   -1.901368    6.159206
 ---------------------------------------------------------------------

 SCF Done:  E(RHF) =  -1124.07406805     A.U. after    9 cycles

 Alpha  occ. eigenvalues --  -20.55350 -11.27427 -11.23888 -11.22697 -11.22636
 Alpha  occ. eigenvalues --  -11.22546 -11.22305 -11.22278 -11.22133 -11.22043
 Alpha  occ. eigenvalues --  -11.22040 -11.21985 -11.21918 -11.21909 -11.21560
 Alpha  occ. eigenvalues --  -11.21553 -11.21476 -11.21443 -11.21435 -11.21388
 Alpha  occ. eigenvalues --  -11.21350 -11.21330 -11.21328 -11.21167 -11.21049
 Alpha  occ. eigenvalues --  -11.21024 -11.20919 -11.20813  -1.34653  -1.15846
 Alpha  occ. eigenvalues --   -1.13421  -1.09552  -1.07920  -1.06032  -1.05464
 Alpha  occ. eigenvalues --   -1.02647  -1.01302  -0.99466  -0.97702  -0.95785
 Alpha  occ. eigenvalues --   -0.92723  -0.92403  -0.91968  -0.91254  -0.90641
 Alpha  occ. eigenvalues --   -0.85953  -0.83895  -0.82223  -0.81740  -0.78945
 Alpha  occ. eigenvalues --   -0.76639  -0.76344  -0.74533  -0.73625  -0.71825
 Alpha  occ. eigenvalues --   -0.68979  -0.66837  -0.64962  -0.64316  -0.63396
 Alpha  occ. eigenvalues --   -0.62737  -0.62680  -0.61789  -0.61006  -0.60544
 Alpha  occ. eigenvalues --   -0.59550  -0.59056  -0.58449  -0.58176  -0.57788
 Alpha  occ. eigenvalues --   -0.56463  -0.56016  -0.55848  -0.55370  -0.54589
 Alpha  occ. eigenvalues --   -0.54441  -0.53649  -0.53339  -0.52749  -0.52658
 Alpha  occ. eigenvalues --   -0.52482  -0.52284  -0.51426  -0.51244  -0.50959
 Alpha  occ. eigenvalues --   -0.50564  -0.50232  -0.48692  -0.48340  -0.47587
 Alpha  occ. eigenvalues --   -0.47237  -0.47003  -0.46790  -0.46200  -0.45262
 Alpha  occ. eigenvalues --   -0.45222  -0.44444  -0.44329  -0.43893  -0.43811
 Alpha  occ. eigenvalues --   -0.43346  -0.43088  -0.42874  -0.42331  -0.41608
 Alpha  occ. eigenvalues --   -0.39772  -0.38404  -0.32777
 Alpha virt. eigenvalues --    0.18188   0.21253   0.21855   0.22229   0.22592
 Alpha virt. eigenvalues --    0.23235   0.24040   0.24460   0.24916   0.25882
 Alpha virt. eigenvalues --    0.26426   0.26579   0.26917   0.27525   0.27894

 Mulliken charges:
               1
     1  O   -0.765600
     2  H    0.433023
     3  C   -0.029437
     4  C   -0.158004
     5  H    0.151007
     6  C   -0.153876
     7  H    0.163528
     8  C   -0.154750
     9  H    0.155010
    10  C   -0.142956
    11  H    0.153091
    12  C   -0.298191
    13  H    0.151110
    14  H    0.164258
    15  C   -0.038311
    16  C   -0.316814
    17  H    0.165514
    18  H    0.158387
    19  C   -0.327774
    20  H    0.163877
    21  H    0.165895
    22  C   -0.333550
    23  H    0.160943
    24  H    0.166389
    25  C   -0.324367
    26  H    0.170125
    27  H    0.161199
    28  C   -0.138163
    29  H    0.157004
    30  C   -0.489748
    31  H    0.162769
    32  H    0.164867
    33  H    0.163769
    34  C    0.063533
    35  C   -0.326265
    36  H    0.160355
    37  H    0.169544
    38  C   -0.235071
    39  H    0.171930
    40  C   -0.480328
    41  H    0.162500
    42  H    0.168536
    43  H    0.165256
    44  C   -0.370714
    45  H    0.159871
    46  H    0.179306
    47  C   -0.327116
    48  H    0.171498
    49  H    0.178726
    50  C   -0.319773
    51  H    0.165211
    52  H    0.155281
    53  C    0.194461
    54  H    0.144543
    55  C   -0.488565
    56  H    0.154061
    57  H    0.165504
    58  H    0.159071
    59  C   -0.313128
    60  H    0.154703
    61  H    0.157333
    62  C   -0.306741
    63  H    0.156944
    64  H    0.150459
    65  C   -0.145909
    66  H    0.155342
    67  C   -0.476574
    68  H    0.156918
    69  H    0.158441
    70  H    0.156034
    71  C   -0.476597
    72  H    0.156228
    73  H    0.158505
    74  H    0.156464
 Sum of Mulliken charges =   0.00000

 Dipole moment (field-independent basis, Debye):
    X=              0.4387    Y=              0.2121    Z=              1.6580  Tot=              1.7281
 Quadrupole moment (field-independent basis, Debye-Ang):
   XX=           -170.9950   YY=           -181.3123   ZZ=           -202.8220
   XY=              0.7544   XZ=              3.5643   YZ=             -1.2133

 ESP charges:
               1
     1  O   -0.742873
     2  H    0.430937
     3  C    0.571194
     4  C   -0.046476
     5  H    0.010090
     6  C   -0.009433
     7  H    0.029028
     8  C   -0.068739
     9  H    0.014614
    10  C    0.048221
    11  H   -0.041042
    12  C   -0.155646
    13  H   -0.002879
    14  H    0.024160
    15  C    0.531310
    16  C   -0.109990
    17  H    0.035423
    18  H    0.034496
    19  C   -0.074002
    20  H    0.021624
    21  H    0.030018
    22  C   -0.242830
    23  H    0.061342
    24  H    0.084452
    25  C   -0.016873
    26  H    0.040093
    27  H    0.034377
    28  C    0.225387
    29  H    0.009996
    30  C   -0.576735
    31  H    0.103079
    32  H    0.125289
    33  H    0.115298
    34  C   -0.156323
    35  C   -0.325188
    36  H    0.062463
    37  H    0.074990
    38  C   -0.266343
    39  H    0.145708
    40  C   -0.444103
    41  H    0.084462
    42  H    0.116404
    43  H    0.091706
    44  C   -0.252819
    45  H    0.078457
    46  H    0.098511
    47  C   -0.021692
    48  H    0.049980
    49  H    0.048647
    50  C   -0.225639
    51  H    0.025359
    52  H    0.075771
    53  C    0.384378
    54  H   -0.012401
    55  C   -0.412816
    56  H    0.075632
    57  H    0.094004
    58  H    0.089676
    59  C    0.044996
    60  H    0.000421
    61  H    0.023236
    62  C   -0.213717
    63  H    0.033775
    64  H    0.049822
    65  C    0.430851
    66  H   -0.060843
    67  C   -0.412437
    68  H    0.084202
    69  H    0.092681
    70  H    0.089950
    71  C   -0.380058
    72  H    0.079149
    73  H    0.081876
    74  H    0.084362
 Sum of ESP charges =   0.00000

 Normal termination of Gaussian 09 at Tue Mar 21 12:06:02 2017.
