 Gaussian 09, Revision D.01,
 Gaussian 09:  EM64L-G09RevD.01 24-Apr-2013

 ----------------------------------------------------------------------
 #P HF/6-31G* SCF(Conver=6) NoSymm Test Pop=mk IOp(6/33=2) GFInput GFPr
 int
 ----------------------------------------------------------------------

 ----------------------------------------------
 MEP - Input generated by R.E.D.-III.x MOLECULE
 ----------------------------------------------
 Symbolic Z-matrix:
 Charge =  0 Multiplicity = 1

                          Input orientation:
 ---------------------------------------------------------------------
 Center     Atomic      Atomic             Coordinates (Angstroms)
 Number     Number       Type             X           Y           Z
 ---------------------------------------------------------------------
      1          8           0        0.401552   -3.288288    7.294366
      2          1           0        0.243126   -4.232131    7.160189
      3          6           0        1.509169    1.495887    0.000000
      4          6           0        1.103468    0.000000    0.000000
      5          1           0        0.000000    0.000000    0.000000
      6          6           0        1.511535   -0.777481    1.257190
      7          1           0        2.607772   -0.793901    1.335490
      8          6           0        0.918718   -0.082369    2.514463
      9          1           0       -0.172462   -0.219761    2.434998
     10          6           0        0.952168    1.916576   -1.395778
     11          1           0       -0.139666    1.872000   -1.271253
     12          6           0        0.814430    2.156153    1.203959
     13          1           0       -0.273594    2.113976    1.049817
     14          1           0        1.078430    3.219408    1.283222
     15          6           0        1.338746   -0.792978    3.849725
     16          6           0        1.534204   -0.509464   -1.389108
     17          1           0        0.945469   -1.372996   -1.714298
     18          1           0        2.583318   -0.830225   -1.378082
     19          6           0        1.173190    1.446392    2.526664
     20          1           0        2.224207    1.647235    2.757788
     21          1           0        0.595594    1.906304    3.336277
     22          6           0        1.339974    0.724026   -2.325950
     23          1           0        2.260421    0.931357   -2.878940
     24          1           0        0.563484    0.542763   -3.076371
     25          6           0        1.022611   -2.232916    1.189333
     26          1           0        1.630122   -2.800868    0.472072
     27          1           0       -0.003101   -2.257131    0.784932
     28          6           0        1.246007    3.352766   -1.918253
     29          1           0        1.305825    4.003699   -1.032374
     30          6           0        3.037853    1.697201    0.092689
     31          1           0        3.283820    2.764499    0.082273
     32          1           0        3.452564    1.281472    1.014090
     33          1           0        3.569590    1.225700   -0.738593
     34          6           0        1.198962   -2.315441    3.706321
     35          6           0        0.379765   -0.322557    4.987716
     36          1           0       -0.652140   -0.389135    4.615572
     37          1           0        0.563807    0.735068    5.205474
     38          6           0        1.043588   -2.925684    2.522147
     39          1           0        0.924948   -4.009701    2.506571
     40          6           0        2.804667   -0.461757    4.238483
     41          1           0        2.914247    0.587321    4.530794
     42          1           0        3.141818   -1.066680    5.083834
     43          1           0        3.488351   -0.659840    3.407240
     44          6           0        1.243038   -3.125439    4.988795
     45          1           0        1.041991   -4.180415    4.762005
     46          1           0        2.243627   -3.084686    5.442058
     47          6           0        0.480949   -1.125033    6.293045
     48          1           0        1.466025   -1.000645    6.759919
     49          1           0       -0.256987   -0.758693    7.015764
     50          6           0        2.569978    3.526081   -2.702877
     51          1           0        3.348992    2.891278   -2.272595
     52          1           0        2.426017    3.171202   -3.733914
     53          6           0        0.251376   -2.609439    6.041367
     54          1           0       -0.775490   -2.754052    5.666672
     55          6           0        0.055959    3.850716   -2.764231
     56          1           0       -0.110463    3.192291   -3.625966
     57          1           0        0.221126    4.862181   -3.149214
     58          1           0       -0.868197    3.869329   -2.175946
     59          6           0        3.079103    4.977225   -2.740667
     60          1           0        2.275078    5.639558   -3.085392
     61          1           0        3.311934    5.302689   -1.717530
     62          6           0        4.296059    5.204613   -3.656237
     63          1           0        4.517062    6.281969   -3.685968
     64          1           0        4.015497    4.925458   -4.682209
     65          6           0        5.596284    4.458725   -3.287226
     66          1           0        5.381129    3.380783   -3.263163
     67          6           0        6.132256    4.864274   -1.905070
     68          1           0        5.420516    4.640901   -1.103821
     69          1           0        7.063503    4.334172   -1.675079
     70          1           0        6.345616    5.940663   -1.871277
     71          6           0        6.664700    4.689782   -4.367944
     72          1           0        6.311649    4.367328   -5.354249
     73          1           0        7.584408    4.137426   -4.143677
     74          1           0        6.925081    5.753738   -4.439163
 ---------------------------------------------------------------------

 SCF Done:  E(RHF) =  -1124.07638591     A.U. after    9 cycles

 Alpha  occ. eigenvalues --  -20.55371 -11.27448 -11.23946 -11.22729 -11.22447
 Alpha  occ. eigenvalues --  -11.22434 -11.22427 -11.22405 -11.22156 -11.22094
 Alpha  occ. eigenvalues --  -11.22017 -11.21955 -11.21935 -11.21870 -11.21572
 Alpha  occ. eigenvalues --  -11.21571 -11.21556 -11.21512 -11.21496 -11.21482
 Alpha  occ. eigenvalues --  -11.21416 -11.21403 -11.21266 -11.21205 -11.21050
 Alpha  occ. eigenvalues --  -11.21041 -11.20980 -11.20973  -1.34675  -1.15922
 Alpha  occ. eigenvalues --   -1.13482  -1.09622  -1.07970  -1.06108  -1.05510
 Alpha  occ. eigenvalues --   -1.02661  -1.01382  -0.99688  -0.97787  -0.95756
 Alpha  occ. eigenvalues --   -0.92462  -0.92346  -0.91899  -0.91365  -0.90706
 Alpha  occ. eigenvalues --   -0.85985  -0.83441  -0.82401  -0.81934  -0.79664
 Alpha  occ. eigenvalues --   -0.76681  -0.76439  -0.74935  -0.72873  -0.71624
 Alpha  occ. eigenvalues --   -0.68996  -0.66871  -0.64698  -0.64425  -0.63610
 Alpha  occ. eigenvalues --   -0.63409  -0.62748  -0.62043  -0.61275  -0.60600
 Alpha  occ. eigenvalues --   -0.59149  -0.58889  -0.58625  -0.58187  -0.57469
 Alpha  occ. eigenvalues --   -0.56700  -0.56131  -0.55626  -0.55410  -0.54541
 Alpha  occ. eigenvalues --   -0.53939  -0.53712  -0.53327  -0.53098  -0.52798
 Alpha  occ. eigenvalues --   -0.52402  -0.52333  -0.51760  -0.51264  -0.51011
 Alpha  occ. eigenvalues --   -0.50600  -0.49519  -0.48766  -0.48512  -0.48071
 Alpha  occ. eigenvalues --   -0.47276  -0.47009  -0.46591  -0.46215  -0.45686
 Alpha  occ. eigenvalues --   -0.45069  -0.44825  -0.44557  -0.44255  -0.43652
 Alpha  occ. eigenvalues --   -0.43401  -0.42976  -0.42384  -0.42179  -0.41739
 Alpha  occ. eigenvalues --   -0.39830  -0.38669  -0.32806
 Alpha virt. eigenvalues --    0.18143   0.20289   0.22229   0.22397   0.22696
 Alpha virt. eigenvalues --    0.23179   0.23771   0.23945   0.24549   0.25501
 Alpha virt. eigenvalues --    0.26446   0.26797   0.26976   0.27437   0.28156

 Mulliken charges:
               1
     1  O   -0.765583
     2  H    0.433066
     3  C   -0.031160
     4  C   -0.157887
     5  H    0.151005
     6  C   -0.153838
     7  H    0.164149
     8  C   -0.155244
     9  H    0.155342
    10  C   -0.148016
    11  H    0.156458
    12  C   -0.296180
    13  H    0.151703
    14  H    0.157936
    15  C   -0.038296
    16  C   -0.318213
    17  H    0.165355
    18  H    0.158220
    19  C   -0.328495
    20  H    0.164736
    21  H    0.166798
    22  C   -0.329249
    23  H    0.167531
    24  H    0.164261
    25  C   -0.324045
    26  H    0.170216
    27  H    0.161234
    28  C   -0.143611
    29  H    0.158103
    30  C   -0.489922
    31  H    0.162466
    32  H    0.166385
    33  H    0.163615
    34  C    0.063321
    35  C   -0.326465
    36  H    0.160390
    37  H    0.169661
    38  C   -0.235064
    39  H    0.172118
    40  C   -0.480411
    41  H    0.162293
    42  H    0.168746
    43  H    0.165588
    44  C   -0.370768
    45  H    0.159985
    46  H    0.179316
    47  C   -0.327162
    48  H    0.171516
    49  H    0.178822
    50  C   -0.319561
    51  H    0.169117
    52  H    0.151195
    53  C    0.194489
    54  H    0.144589
    55  C   -0.482424
    56  H    0.154771
    57  H    0.161241
    58  H    0.158125
    59  C   -0.313733
    60  H    0.158295
    61  H    0.153184
    62  C   -0.297489
    63  H    0.150894
    64  H    0.151968
    65  C   -0.152410
    66  H    0.155225
    67  C   -0.477042
    68  H    0.161554
    69  H    0.158453
    70  H    0.152308
    71  C   -0.471689
    72  H    0.157731
    73  H    0.158033
    74  H    0.152451
 Sum of Mulliken charges =   0.00000

 Dipole moment (field-independent basis, Debye):
    X=             -0.3580    Y=             -0.4989    Z=             -1.5363  Tot=              1.6545
 Quadrupole moment (field-independent basis, Debye-Ang):
   XX=           -182.3718   YY=           -173.8928   ZZ=           -202.7090
   XY=              1.0298   XZ=             -2.3001   YZ=              1.5865

 ESP charges:
               1
     1  O   -0.747400
     2  H    0.433583
     3  C    0.512258
     4  C    0.014151
     5  H   -0.000184
     6  C   -0.000066
     7  H    0.037268
     8  C   -0.016447
     9  H    0.011493
    10  C   -0.112798
    11  H    0.022872
    12  C   -0.218346
    13  H    0.017708
    14  H    0.045752
    15  C    0.375687
    16  C   -0.183993
    17  H    0.040987
    18  H    0.043056
    19  C   -0.027299
    20  H    0.024781
    21  H    0.022411
    22  C   -0.009536
    23  H   -0.005816
    24  H    0.027084
    25  C   -0.073833
    26  H    0.056703
    27  H    0.048745
    28  C    0.129145
    29  H   -0.012890
    30  C   -0.706291
    31  H    0.158323
    32  H    0.149987
    33  H    0.170714
    34  C   -0.068860
    35  C   -0.323887
    36  H    0.070239
    37  H    0.085284
    38  C   -0.261210
    39  H    0.143239
    40  C   -0.461945
    41  H    0.097673
    42  H    0.128094
    43  H    0.103120
    44  C   -0.320457
    45  H    0.090113
    46  H    0.113793
    47  C   -0.008554
    48  H    0.053688
    49  H    0.041485
    50  C    0.014946
    51  H    0.020721
    52  H    0.009301
    53  C    0.408038
    54  H   -0.015983
    55  C   -0.426381
    56  H    0.101035
    57  H    0.104838
    58  H    0.097968
    59  C   -0.017821
    60  H    0.033724
    61  H    0.006728
    62  C   -0.279352
    63  H    0.063544
    64  H    0.060252
    65  C    0.494327
    66  H   -0.063888
    67  C   -0.407948
    68  H    0.082230
    69  H    0.084269
    70  H    0.095643
    71  C   -0.512099
    72  H    0.104891
    73  H    0.117964
    74  H    0.113424
 Sum of ESP charges =   0.00000

 Normal termination of Gaussian 09 at Tue Mar 21 12:28:26 2017.
