 Gaussian 09, Revision D.01,
 Gaussian 09:  EM64L-G09RevD.01 24-Apr-2013

 ----------------------------------------------------------------------
 #P HF/6-31G* SCF(Conver=6) NoSymm Test Pop=mk IOp(6/33=2) GFInput GFPr
 int
 ----------------------------------------------------------------------

 ----------------------------------------------
 MEP - Input generated by R.E.D.-III.x MOLECULE
 ----------------------------------------------
 Symbolic Z-matrix:
 Charge =  0 Multiplicity = 1

                          Input orientation:
 ---------------------------------------------------------------------
 Center     Atomic      Atomic             Coordinates (Angstroms)
 Number     Number       Type             X           Y           Z
 ---------------------------------------------------------------------
      1          8           0        4.210920    6.550287    4.124718
      2          1           0        4.989921    6.901115    3.673035
      3          6           0        0.000000    0.000000    0.000000
      4          6           0        1.345085    0.619006   -0.473378
      5          1           0        2.126783    0.000000    0.000000
      6          6           0        1.612298    2.053687    0.000000
      7          1           0        0.847922    2.721891   -0.421464
      8          6           0        1.546501    2.117579    1.548527
      9          1           0        2.410215    1.531228    1.903708
     10          6           0        0.092807   -1.403018   -0.694899
     11          1           0        0.851288   -1.963668   -0.128079
     12          6           0        0.034081    0.009481    1.542032
     13          1           0        0.836439   -0.662424    1.880027
     14          1           0       -0.896418   -0.376899    1.970204
     15          6           0        1.761600    3.569174    2.104790
     16          6           0        1.401355    0.310241   -1.977886
     17          1           0        2.426800    0.283958   -2.359862
     18          1           0        0.870725    1.079887   -2.552134
     19          6           0        0.279521    1.425738    2.103067
     20          1           0       -0.602045    2.040569    1.892849
     21          1           0        0.344456    1.358396    3.194967
     22          6           0        0.691201   -1.066913   -2.100780
     23          1           0       -0.106035   -1.024839   -2.852215
     24          1           0        1.381913   -1.849040   -2.431013
     25          6           0        2.985687    2.545723   -0.484607
     26          1           0        2.951639    2.759165   -1.561282
     27          1           0        3.726420    1.736516   -0.371851
     28          6           0       -1.168451   -2.297209   -0.783943
     29          1           0       -1.917940   -1.741165   -1.366707
     30          6           0       -1.228775    0.778923   -0.522628
     31          1           0       -2.155331    0.343574   -0.133414
     32          1           0       -1.214675    1.828821   -0.219999
     33          1           0       -1.293583    0.759188   -1.614759
     34          6           0        2.936785    4.243904    1.383425
     35          6           0        2.114346    3.473346    3.622008
     36          1           0        2.889253    2.703913    3.745292
     37          1           0        1.238109    3.123606    4.178639
     38          6           0        3.470157    3.763017    0.250706
     39          1           0        4.321239    4.285905   -0.187133
     40          6           0        0.493825    4.446087    1.922131
     41          1           0       -0.324390    4.105181    2.564274
     42          1           0        0.688270    5.490670    2.177630
     43          1           0        0.146537    4.427231    0.884458
     44          6           0        3.487545    5.507776    2.017480
     45          1           0        4.375047    5.838610    1.462716
     46          1           0        2.754907    6.325087    1.958347
     47          6           0        2.618398    4.779260    4.253427
     48          1           0        1.837059    5.549489    4.249184
     49          1           0        2.885354    4.609215    5.302665
     50          6           0       -0.913430   -3.588575   -1.613865
     51          1           0       -1.855442   -4.154478   -1.648936
     52          1           0       -0.718251   -3.282951   -2.648696
     53          6           0        3.829283    5.317220    3.502367
     54          1           0        4.655071    4.591732    3.589125
     55          6           0       -1.810988   -2.599125    0.583740
     56          1           0       -1.077969   -2.945664    1.318864
     57          1           0       -2.577182   -3.376573    0.487050
     58          1           0       -2.298508   -1.714312    1.002187
     59          6           0        0.221553   -4.552164   -1.199379
     60          1           0        0.415560   -5.198336   -2.065064
     61          1           0        1.148361   -3.987878   -1.040038
     62          6           0       -0.062161   -5.446600    0.020709
     63          1           0       -1.055293   -5.902927   -0.100945
     64          1           0       -0.120714   -4.832222    0.926403
     65          6           0        0.960599   -6.578965    0.282500
     66          1           0        0.619362   -7.084436    1.198094
     67          6           0        2.375327   -6.044888    0.562426
     68          1           0        2.368365   -5.297095    1.364303
     69          1           0        3.045408   -6.856260    0.868923
     70          1           0        2.813762   -5.577585   -0.326952
     71          6           0        0.980751   -7.638820   -0.831711
     72          1           0       -0.024440   -8.030308   -1.027596
     73          1           0        1.619328   -8.484418   -0.551579
     74          1           0        1.371636   -7.234670   -1.772566
 ---------------------------------------------------------------------

 SCF Done:  E(RHF) =  -1124.07298541     A.U. after    9 cycles

 Alpha  occ. eigenvalues --  -20.55356 -11.27433 -11.23898 -11.22703 -11.22662
 Alpha  occ. eigenvalues --  -11.22503 -11.22356 -11.22320 -11.22139 -11.22049
 Alpha  occ. eigenvalues --  -11.21993 -11.21981 -11.21927 -11.21916 -11.21560
 Alpha  occ. eigenvalues --  -11.21531 -11.21459 -11.21458 -11.21441 -11.21395
 Alpha  occ. eigenvalues --  -11.21362 -11.21358 -11.21343 -11.21175 -11.21060
 Alpha  occ. eigenvalues --  -11.21004 -11.20927 -11.20819  -1.34659  -1.15869
 Alpha  occ. eigenvalues --   -1.13449  -1.09458  -1.07910  -1.06039  -1.05419
 Alpha  occ. eigenvalues --   -1.02659  -1.01238  -0.99399  -0.97688  -0.95811
 Alpha  occ. eigenvalues --   -0.92802  -0.92396  -0.91972  -0.91464  -0.90691
 Alpha  occ. eigenvalues --   -0.85962  -0.84310  -0.82514  -0.81778  -0.78764
 Alpha  occ. eigenvalues --   -0.76619  -0.76215  -0.74602  -0.72904  -0.71438
 Alpha  occ. eigenvalues --   -0.68993  -0.66924  -0.65328  -0.64296  -0.63421
 Alpha  occ. eigenvalues --   -0.63253  -0.62459  -0.61627  -0.61046  -0.60221
 Alpha  occ. eigenvalues --   -0.59930  -0.59010  -0.58550  -0.58204  -0.57434
 Alpha  occ. eigenvalues --   -0.56395  -0.56273  -0.55803  -0.55315  -0.54676
 Alpha  occ. eigenvalues --   -0.54482  -0.53696  -0.53481  -0.52838  -0.52628
 Alpha  occ. eigenvalues --   -0.52319  -0.52084  -0.51641  -0.51369  -0.51150
 Alpha  occ. eigenvalues --   -0.50403  -0.50224  -0.48544  -0.48205  -0.48103
 Alpha  occ. eigenvalues --   -0.47381  -0.47091  -0.46738  -0.46391  -0.45333
 Alpha  occ. eigenvalues --   -0.44993  -0.44610  -0.44201  -0.43802  -0.43617
 Alpha  occ. eigenvalues --   -0.43322  -0.42946  -0.42822  -0.42102  -0.41595
 Alpha  occ. eigenvalues --   -0.39801  -0.38522  -0.32783
 Alpha virt. eigenvalues --    0.18177   0.20535   0.21789   0.22472   0.22630
 Alpha virt. eigenvalues --    0.23165   0.24121   0.24446   0.24756   0.25378
 Alpha virt. eigenvalues --    0.26041   0.26552   0.27149   0.27676   0.28179

 Mulliken charges:
               1
     1  O   -0.765588
     2  H    0.433038
     3  C   -0.027612
     4  C   -0.157930
     5  H    0.150869
     6  C   -0.153635
     7  H    0.163635
     8  C   -0.154768
     9  H    0.154955
    10  C   -0.141573
    11  H    0.155518
    12  C   -0.298411
    13  H    0.150398
    14  H    0.164306
    15  C   -0.038364
    16  C   -0.316491
    17  H    0.165441
    18  H    0.158430
    19  C   -0.327824
    20  H    0.163979
    21  H    0.165915
    22  C   -0.336195
    23  H    0.160835
    24  H    0.167793
    25  C   -0.324460
    26  H    0.170214
    27  H    0.161222
    28  C   -0.143087
    29  H    0.155774
    30  C   -0.489624
    31  H    0.162558
    32  H    0.164995
    33  H    0.164026
    34  C    0.063501
    35  C   -0.326290
    36  H    0.160330
    37  H    0.169526
    38  C   -0.235052
    39  H    0.171971
    40  C   -0.480263
    41  H    0.162484
    42  H    0.168550
    43  H    0.165325
    44  C   -0.370706
    45  H    0.159898
    46  H    0.179319
    47  C   -0.327111
    48  H    0.171499
    49  H    0.178735
    50  C   -0.314194
    51  H    0.153030
    52  H    0.161713
    53  C    0.194461
    54  H    0.144553
    55  C   -0.487091
    56  H    0.158288
    57  H    0.158649
    58  H    0.160734
    59  C   -0.319517
    60  H    0.158276
    61  H    0.160249
    62  C   -0.303176
    63  H    0.149982
    64  H    0.157933
    65  C   -0.146989
    66  H    0.155272
    67  C   -0.476529
    68  H    0.155472
    69  H    0.158452
    70  H    0.156080
    71  C   -0.476502
    72  H    0.156995
    73  H    0.158336
    74  H    0.155462
 Sum of Mulliken charges =   0.00000

 Dipole moment (field-independent basis, Debye):
    X=              0.4514    Y=             -0.9298    Z=             -1.3454  Tot=              1.6966
 Quadrupole moment (field-independent basis, Debye-Ang):
   XX=           -173.6604   YY=           -190.8929   ZZ=           -190.7858
   XY=              2.0056   XZ=             -4.2302   YZ=            -12.2003

 ESP charges:
               1
     1  O   -0.753023
     2  H    0.431298
     3  C    0.394419
     4  C   -0.001001
     5  H   -0.001085
     6  C    0.067965
     7  H    0.011018
     8  C    0.048584
     9  H   -0.018037
    10  C    0.060211
    11  H   -0.022605
    12  C   -0.195351
    13  H    0.010653
    14  H    0.047067
    15  C    0.466674
    16  C   -0.231962
    17  H    0.059956
    18  H    0.051239
    19  C   -0.071278
    20  H    0.026987
    21  H    0.027030
    22  C   -0.032917
    23  H    0.017803
    24  H    0.010672
    25  C   -0.076016
    26  H    0.051005
    27  H    0.040090
    28  C    0.335209
    29  H   -0.044719
    30  C   -0.546512
    31  H    0.109926
    32  H    0.119370
    33  H    0.120008
    34  C   -0.151636
    35  C   -0.319505
    36  H    0.060341
    37  H    0.073360
    38  C   -0.249944
    39  H    0.144613
    40  C   -0.481384
    41  H    0.091208
    42  H    0.132009
    43  H    0.100123
    44  C   -0.263550
    45  H    0.079013
    46  H    0.097273
    47  C   -0.012824
    48  H    0.049074
    49  H    0.043570
    50  C   -0.327903
    51  H    0.077939
    52  H    0.029189
    53  C    0.419599
    54  H   -0.023671
    55  C   -0.471851
    56  H    0.090651
    57  H    0.105350
    58  H    0.103943
    59  C    0.252885
    60  H   -0.017636
    61  H   -0.035728
    62  C   -0.343307
    63  H    0.067390
    64  H    0.065065
    65  C    0.452555
    66  H   -0.052933
    67  C   -0.411715
    68  H    0.086787
    69  H    0.090839
    70  H    0.087811
    71  C   -0.432770
    72  H    0.090575
    73  H    0.095515
    74  H    0.097002
 Sum of ESP charges =   0.00000

 Normal termination of Gaussian 09 at Tue Mar 21 12:16:00 2017.
