 Gaussian 09, Revision D.01,
 Gaussian 09:  EM64L-G09RevD.01 24-Apr-2013

 ----------------------------------------------------------------------
 #P HF/6-31G* SCF(Conver=6) NoSymm Test Pop=mk IOp(6/33=2) GFInput GFPr
 int
 ----------------------------------------------------------------------

 ----------------------------------------------
 MEP - Input generated by R.E.D.-III.x MOLECULE
 ----------------------------------------------
 Symbolic Z-matrix:
 Charge =  0 Multiplicity = 1

                          Input orientation:
 ---------------------------------------------------------------------
 Center     Atomic      Atomic             Coordinates (Angstroms)
 Number     Number       Type             X           Y           Z
 ---------------------------------------------------------------------
      1          8           0        0.428484   -3.381839    7.255533
      2          1           0        0.267253   -4.323499    7.109857
      3          6           0        1.506204    1.501518    0.000000
      4          6           0        1.103769    0.000000    0.000000
      5          1           0        0.000000    0.000000    0.000000
      6          6           0        1.516092   -0.792095    1.247547
      7          1           0        2.612920   -0.809667    1.318671
      8          6           0        0.934398   -0.115390    2.516424
      9          1           0       -0.158451   -0.242514    2.442371
     10          6           0        0.951674    1.926325   -1.404277
     11          1           0       -0.143002    1.950087   -1.294603
     12          6           0        0.826047    2.135525    1.230664
     13          1           0       -0.263958    2.092454    1.090989
     14          1           0        1.084715    3.194029    1.336068
     15          6           0        1.357566   -0.844550    3.840084
     16          6           0        1.536005   -0.513286   -1.382662
     17          1           0        0.958857   -1.386799   -1.702049
     18          1           0        2.589707   -0.818681   -1.371279
     19          6           0        1.205863    1.406877    2.536650
     20          1           0        2.265155    1.592947    2.743153
     21          1           0        0.653822    1.868666    3.363087
     22          6           0        1.319325    0.709948   -2.316858
     23          1           0        2.229800    0.925854   -2.888198
     24          1           0        0.533160    0.520227   -3.054294
     25          6           0        1.027222   -2.246999    1.161498
     26          1           0        1.632794   -2.806234    0.435906
     27          1           0        0.000459   -2.266221    0.759499
     28          6           0        1.381623    3.281507   -2.018200
     29          1           0        2.474185    3.247128   -2.143337
     30          6           0        3.037402    1.706005    0.058023
     31          1           0        3.282524    2.772513    0.102733
     32          1           0        3.486420    1.235613    0.936193
     33          1           0        3.540619    1.293013   -0.821494
     34          6           0        1.213063   -2.364153    3.676949
     35          6           0        0.403312   -0.386954    4.987067
     36          1           0       -0.629863   -0.448150    4.617592
     37          1           0        0.589007    0.667893    5.216768
     38          6           0        1.051431   -2.957497    2.485056
     39          1           0        0.929708   -4.040885    2.454898
     40          6           0        2.825535   -0.521394    4.227686
     41          1           0        2.938418    0.524308    4.530681
     42          1           0        3.164063   -1.136396    5.065190
     43          1           0        3.505943   -0.712020    3.391962
     44          6           0        1.259873   -3.191218    4.948368
     45          1           0        1.054796   -4.242579    4.708664
     46          1           0        2.262450   -3.159200    5.397885
     47          6           0        0.507909   -1.205829    6.281931
     48          1           0        1.495032   -1.089326    6.746449
     49          1           0       -0.226505   -0.847244    7.012092
     50          6           0        0.832736    3.470890   -3.461907
     51          1           0        1.197553    4.439222   -3.833533
     52          1           0        1.309719    2.715964   -4.098263
     53          6           0        0.274155   -2.686470    6.012123
     54          1           0       -0.754743   -2.824024    5.640329
     55          6           0        1.080791    4.493382   -1.115193
     56          1           0        0.052043    4.487076   -0.741761
     57          1           0        1.228882    5.430083   -1.664272
     58          1           0        1.742808    4.519833   -0.245306
     59          6           0       -0.689221    3.389982   -3.718011
     60          1           0       -0.817728    3.244095   -4.798191
     61          1           0       -1.097473    2.486757   -3.248653
     62          6           0       -1.513167    4.618358   -3.292181
     63          1           0       -1.013562    5.523888   -3.666020
     64          1           0       -1.515578    4.703713   -2.199532
     65          6           0       -2.984810    4.645936   -3.772103
     66          1           0       -3.419293    5.565109   -3.351862
     67          6           0       -3.807269    3.467109   -3.225311
     68          1           0       -3.726873    3.396323   -2.134084
     69          1           0       -4.868300    3.582334   -3.474729
     70          1           0       -3.474272    2.512063   -3.647912
     71          6           0       -3.115604    4.748593   -5.300997
     72          1           0       -2.539260    5.594226   -5.694414
     73          1           0       -4.162211    4.893972   -5.592150
     74          1           0       -2.762272    3.840500   -5.802853
 ---------------------------------------------------------------------

 SCF Done:  E(RHF) =  -1124.07298542     A.U. after    9 cycles

 Alpha  occ. eigenvalues --  -20.55356 -11.27433 -11.23898 -11.22703 -11.22662
 Alpha  occ. eigenvalues --  -11.22503 -11.22356 -11.22320 -11.22139 -11.22049
 Alpha  occ. eigenvalues --  -11.21993 -11.21981 -11.21927 -11.21916 -11.21560
 Alpha  occ. eigenvalues --  -11.21531 -11.21459 -11.21458 -11.21441 -11.21395
 Alpha  occ. eigenvalues --  -11.21362 -11.21358 -11.21343 -11.21175 -11.21060
 Alpha  occ. eigenvalues --  -11.21004 -11.20927 -11.20819  -1.34659  -1.15869
 Alpha  occ. eigenvalues --   -1.13449  -1.09458  -1.07910  -1.06039  -1.05419
 Alpha  occ. eigenvalues --   -1.02659  -1.01238  -0.99399  -0.97688  -0.95811
 Alpha  occ. eigenvalues --   -0.92802  -0.92396  -0.91972  -0.91464  -0.90691
 Alpha  occ. eigenvalues --   -0.85962  -0.84310  -0.82514  -0.81778  -0.78764
 Alpha  occ. eigenvalues --   -0.76619  -0.76215  -0.74602  -0.72904  -0.71438
 Alpha  occ. eigenvalues --   -0.68993  -0.66924  -0.65328  -0.64296  -0.63421
 Alpha  occ. eigenvalues --   -0.63253  -0.62459  -0.61627  -0.61046  -0.60221
 Alpha  occ. eigenvalues --   -0.59930  -0.59010  -0.58550  -0.58204  -0.57434
 Alpha  occ. eigenvalues --   -0.56395  -0.56273  -0.55803  -0.55315  -0.54676
 Alpha  occ. eigenvalues --   -0.54482  -0.53696  -0.53481  -0.52838  -0.52628
 Alpha  occ. eigenvalues --   -0.52319  -0.52084  -0.51641  -0.51369  -0.51150
 Alpha  occ. eigenvalues --   -0.50403  -0.50224  -0.48544  -0.48205  -0.48103
 Alpha  occ. eigenvalues --   -0.47381  -0.47091  -0.46738  -0.46391  -0.45333
 Alpha  occ. eigenvalues --   -0.44993  -0.44610  -0.44201  -0.43802  -0.43617
 Alpha  occ. eigenvalues --   -0.43322  -0.42946  -0.42822  -0.42102  -0.41595
 Alpha  occ. eigenvalues --   -0.39801  -0.38522  -0.32783
 Alpha virt. eigenvalues --    0.18177   0.20535   0.21789   0.22472   0.22630
 Alpha virt. eigenvalues --    0.23165   0.24121   0.24446   0.24756   0.25378
 Alpha virt. eigenvalues --    0.26041   0.26552   0.27149   0.27676   0.28179

 Mulliken charges:
               1
     1  O   -0.765588
     2  H    0.433038
     3  C   -0.027612
     4  C   -0.157929
     5  H    0.150869
     6  C   -0.153635
     7  H    0.163635
     8  C   -0.154768
     9  H    0.154955
    10  C   -0.141573
    11  H    0.155518
    12  C   -0.298411
    13  H    0.150398
    14  H    0.164306
    15  C   -0.038364
    16  C   -0.316491
    17  H    0.165441
    18  H    0.158430
    19  C   -0.327824
    20  H    0.163979
    21  H    0.165915
    22  C   -0.336195
    23  H    0.160835
    24  H    0.167793
    25  C   -0.324460
    26  H    0.170215
    27  H    0.161222
    28  C   -0.143087
    29  H    0.155774
    30  C   -0.489624
    31  H    0.162558
    32  H    0.164995
    33  H    0.164026
    34  C    0.063501
    35  C   -0.326290
    36  H    0.160330
    37  H    0.169526
    38  C   -0.235052
    39  H    0.171971
    40  C   -0.480263
    41  H    0.162484
    42  H    0.168550
    43  H    0.165325
    44  C   -0.370706
    45  H    0.159898
    46  H    0.179319
    47  C   -0.327111
    48  H    0.171499
    49  H    0.178735
    50  C   -0.314193
    51  H    0.153030
    52  H    0.161713
    53  C    0.194461
    54  H    0.144553
    55  C   -0.487091
    56  H    0.158289
    57  H    0.158649
    58  H    0.160733
    59  C   -0.319517
    60  H    0.158276
    61  H    0.160249
    62  C   -0.303176
    63  H    0.149982
    64  H    0.157933
    65  C   -0.146989
    66  H    0.155271
    67  C   -0.476529
    68  H    0.155472
    69  H    0.158452
    70  H    0.156080
    71  C   -0.476502
    72  H    0.156995
    73  H    0.158337
    74  H    0.155462
 Sum of Mulliken charges =   0.00000

 Dipole moment (field-independent basis, Debye):
    X=             -0.2641    Y=             -0.3744    Z=             -1.6336  Tot=              1.6966
 Quadrupole moment (field-independent basis, Debye-Ang):
   XX=           -181.3197   YY=           -173.3398   ZZ=           -202.5996
   XY=              1.7618   XZ=             -3.2365   YZ=              1.3595

 ESP charges:
               1
     1  O   -0.744472
     2  H    0.432267
     3  C    0.447807
     4  C    0.066357
     5  H   -0.019000
     6  C    0.029347
     7  H    0.025946
     8  C   -0.013705
     9  H    0.009001
    10  C   -0.078290
    11  H    0.009967
    12  C   -0.154170
    13  H    0.002554
    14  H    0.035773
    15  C    0.410874
    16  C   -0.215290
    17  H    0.050493
    18  H    0.039859
    19  C   -0.084739
    20  H    0.029877
    21  H    0.030632
    22  C   -0.008463
    23  H    0.015786
    24  H    0.009485
    25  C   -0.101886
    26  H    0.060468
    27  H    0.050621
    28  C    0.336370
    29  H   -0.030183
    30  C   -0.558067
    31  H    0.113408
    32  H    0.117784
    33  H    0.121608
    34  C   -0.108037
    35  C   -0.333199
    36  H    0.072634
    37  H    0.089215
    38  C   -0.243583
    39  H    0.143096
    40  C   -0.469107
    41  H    0.099301
    42  H    0.129059
    43  H    0.104255
    44  C   -0.292626
    45  H    0.084665
    46  H    0.109704
    47  C   -0.024336
    48  H    0.056391
    49  H    0.048134
    50  C   -0.307448
    51  H    0.072686
    52  H    0.028326
    53  C    0.398215
    54  H   -0.011731
    55  C   -0.512305
    56  H    0.102821
    57  H    0.116704
    58  H    0.114747
    59  C    0.238170
    60  H   -0.014194
    61  H   -0.028147
    62  C   -0.313447
    63  H    0.062776
    64  H    0.061995
    65  C    0.420484
    66  H   -0.040988
    67  C   -0.436516
    68  H    0.095252
    69  H    0.100545
    70  H    0.094335
    71  C   -0.447882
    72  H    0.096291
    73  H    0.102729
    74  H    0.102995
 Sum of ESP charges =   0.00000

 Normal termination of Gaussian 09 at Tue Mar 21 12:14:13 2017.
