 Gaussian 09, Revision D.01,
 Gaussian 09:  EM64L-G09RevD.01 24-Apr-2013

 ----------------------------------------------------------------------
 #P HF/6-31G* SCF(Conver=6) NoSymm Test Pop=mk IOp(6/33=2) GFInput GFPr
 int
 ----------------------------------------------------------------------

 ----------------------------------------------
 MEP - Input generated by R.E.D.-III.x MOLECULE
 ----------------------------------------------
 Symbolic Z-matrix:
 Charge =  0 Multiplicity = 1

                          Input orientation:
 ---------------------------------------------------------------------
 Center     Atomic      Atomic             Coordinates (Angstroms)
 Number     Number       Type             X           Y           Z
 ---------------------------------------------------------------------
      1          8           0        4.211238    6.556759    4.118450
      2          1           0        4.989837    6.907398    3.665919
      3          6           0        0.000000    0.000000    0.000000
      4          6           0        1.345641    0.619449   -0.472313
      5          1           0        2.127786    0.000000    0.000000
      6          6           0        1.612906    2.054590    0.000000
      7          1           0        0.848240    2.722001   -0.422163
      8          6           0        1.547283    2.120629    1.548183
      9          1           0        2.410850    1.534743    1.904436
     10          6           0        0.088492   -1.405234   -0.692631
     11          1           0        0.826171   -1.983349   -0.113356
     12          6           0        0.035778    0.012388    1.542622
     13          1           0        0.839245   -0.658383    1.880069
     14          1           0       -0.892627   -0.374135    1.974664
     15          6           0        1.762026    3.572868    2.102661
     16          6           0        1.400097    0.311533   -1.975704
     17          1           0        2.422938    0.305894   -2.365408
     18          1           0        0.849033    1.069166   -2.546628
     19          6           0        0.279962    1.429482    2.102010
     20          1           0       -0.601376    2.043923    1.889413
     21          1           0        0.343161    1.363429    3.194095
     22          6           0        0.720214   -1.080245   -2.090080
     23          1           0       -0.054285   -1.073803   -2.866432
     24          1           0        1.441579   -1.849418   -2.381663
     25          6           0        2.986027    2.546492   -0.485623
     26          1           0        2.951585    2.758916   -1.562473
     27          1           0        3.727028    1.737615   -0.372340
     28          6           0       -1.180523   -2.289750   -0.806111
     29          1           0       -1.906825   -1.755684   -1.437982
     30          6           0       -1.226932    0.779900   -0.526174
     31          1           0       -2.155074    0.350485   -0.134830
     32          1           0       -1.209057    1.831770   -0.230538
     33          1           0       -1.292179    0.752815   -1.618167
     34          6           0        2.936818    4.247183    1.380191
     35          6           0        2.115026    3.478860    3.619949
     36          1           0        2.889985    2.709629    3.744179
     37          1           0        1.238847    3.129830    4.177136
     38          6           0        3.470320    3.764813    0.248170
     39          1           0        4.321210    4.287364   -0.190463
     40          6           0        0.493994    4.449260    1.919187
     41          1           0       -0.324129    4.108883    2.561750
     42          1           0        0.687941    5.494202    2.173589
     43          1           0        0.146658    4.429265    0.881544
     44          6           0        3.487433    5.511845    2.012635
     45          1           0        4.374724    5.842146    1.457214
     46          1           0        2.754793    6.329108    1.952821
     47          6           0        2.619136    4.785574    4.249699
     48          1           0        1.837710    5.555697    4.244864
     49          1           0        2.886523    4.616778    5.299025
     50          6           0       -0.842774   -3.619327   -1.526365
     51          1           0       -0.287404   -3.400989   -2.446127
     52          1           0       -0.157955   -4.195505   -0.887245
     53          6           0        3.829645    5.322914    3.497593
     54          1           0        4.655648    4.597742    3.584858
     55          6           0       -1.849602   -2.571240    0.550705
     56          1           0       -1.142295   -3.039413    1.247057
     57          1           0       -2.702015   -3.247806    0.438907
     58          1           0       -2.226459   -1.660864    1.021603
     59          6           0       -2.056983   -4.482840   -1.909291
     60          1           0       -2.556923   -4.864899   -1.011945
     61          1           0       -2.795371   -3.844250   -2.414840
     62          6           0       -1.722823   -5.656338   -2.848885
     63          1           0       -1.294159   -5.250025   -3.776498
     64          1           0       -2.660954   -6.151816   -3.140162
     65          6           0       -0.761348   -6.731742   -2.299376
     66          1           0        0.182516   -6.240246   -2.023025
     67          6           0       -0.439977   -7.763976   -3.392074
     68          1           0       -0.008283   -7.285864   -4.278936
     69          1           0        0.274486   -8.514000   -3.033924
     70          1           0       -1.347651   -8.294062   -3.708367
     71          6           0       -1.314661   -7.428501   -1.046143
     72          1           0       -1.477941   -6.727315   -0.221317
     73          1           0       -0.622611   -8.200076   -0.689926
     74          1           0       -2.273396   -7.917212   -1.263664
 ---------------------------------------------------------------------

 SCF Done:  E(RHF) =  -1124.07905774     A.U. after    9 cycles

 Alpha  occ. eigenvalues --  -20.55358 -11.27435 -11.23900 -11.22706 -11.22690
 Alpha  occ. eigenvalues --  -11.22402 -11.22376 -11.22316 -11.22141 -11.22077
 Alpha  occ. eigenvalues --  -11.22051 -11.21996 -11.21929 -11.21919 -11.21565
 Alpha  occ. eigenvalues --  -11.21559 -11.21503 -11.21458 -11.21457 -11.21397
 Alpha  occ. eigenvalues --  -11.21364 -11.21351 -11.21322 -11.21178 -11.21031
 Alpha  occ. eigenvalues --  -11.21028 -11.20934 -11.20846  -1.34660  -1.15864
 Alpha  occ. eigenvalues --   -1.13444  -1.09681  -1.08004  -1.06074  -1.05564
 Alpha  occ. eigenvalues --   -1.02663  -1.01346  -0.99581  -0.97747  -0.95805
 Alpha  occ. eigenvalues --   -0.92741  -0.92395  -0.91963  -0.90976  -0.90659
 Alpha  occ. eigenvalues --   -0.85966  -0.83741  -0.82266  -0.81737  -0.79030
 Alpha  occ. eigenvalues --   -0.76674  -0.76360  -0.74721  -0.73756  -0.71794
 Alpha  occ. eigenvalues --   -0.68979  -0.66843  -0.65140  -0.64320  -0.64155
 Alpha  occ. eigenvalues --   -0.63337  -0.62321  -0.61665  -0.60891  -0.60554
 Alpha  occ. eigenvalues --   -0.59368  -0.58920  -0.58408  -0.58093  -0.57373
 Alpha  occ. eigenvalues --   -0.56388  -0.56199  -0.55777  -0.55389  -0.54597
 Alpha  occ. eigenvalues --   -0.54167  -0.54040  -0.53504  -0.53108  -0.52897
 Alpha  occ. eigenvalues --   -0.52407  -0.52333  -0.51463  -0.51232  -0.50402
 Alpha  occ. eigenvalues --   -0.50263  -0.49777  -0.48843  -0.48361  -0.47853
 Alpha  occ. eigenvalues --   -0.47345  -0.47018  -0.46828  -0.46096  -0.45582
 Alpha  occ. eigenvalues --   -0.45164  -0.44732  -0.44300  -0.43970  -0.43598
 Alpha  occ. eigenvalues --   -0.43443  -0.43248  -0.42932  -0.42569  -0.41628
 Alpha  occ. eigenvalues --   -0.39794  -0.38453  -0.32787
 Alpha virt. eigenvalues --    0.18177   0.21111   0.22062   0.22296   0.22569
 Alpha virt. eigenvalues --    0.23449   0.24123   0.24626   0.24933   0.25897
 Alpha virt. eigenvalues --    0.26070   0.26506   0.27144   0.27407   0.27883

 Mulliken charges:
               1
     1  O   -0.765594
     2  H    0.433033
     3  C   -0.029148
     4  C   -0.158267
     5  H    0.151036
     6  C   -0.153674
     7  H    0.163632
     8  C   -0.154758
     9  H    0.155024
    10  C   -0.134770
    11  H    0.152277
    12  C   -0.298426
    13  H    0.151255
    14  H    0.163737
    15  C   -0.038357
    16  C   -0.316309
    17  H    0.165438
    18  H    0.158304
    19  C   -0.327702
    20  H    0.163903
    21  H    0.165952
    22  C   -0.335581
    23  H    0.160128
    24  H    0.167290
    25  C   -0.324497
    26  H    0.170182
    27  H    0.161225
    28  C   -0.149253
    29  H    0.152473
    30  C   -0.489005
    31  H    0.162885
    32  H    0.164765
    33  H    0.163873
    34  C    0.063538
    35  C   -0.326263
    36  H    0.160349
    37  H    0.169523
    38  C   -0.235053
    39  H    0.171961
    40  C   -0.480306
    41  H    0.162497
    42  H    0.168563
    43  H    0.165290
    44  C   -0.370722
    45  H    0.159886
    46  H    0.179326
    47  C   -0.327109
    48  H    0.171497
    49  H    0.178746
    50  C   -0.311593
    51  H    0.164342
    52  H    0.151131
    53  C    0.194463
    54  H    0.144549
    55  C   -0.485691
    56  H    0.152467
    57  H    0.164530
    58  H    0.162925
    59  C   -0.313020
    60  H    0.159098
    61  H    0.154353
    62  C   -0.298439
    63  H    0.151176
    64  H    0.150843
    65  C   -0.151845
    66  H    0.156876
    67  C   -0.471873
    68  H    0.157481
    69  H    0.157984
    70  H    0.152339
    71  C   -0.476811
    72  H    0.161612
    73  H    0.158261
    74  H    0.152049
 Sum of Mulliken charges =   0.00000

 Dipole moment (field-independent basis, Debye):
    X=              0.5395    Y=             -0.8518    Z=             -1.3507  Tot=              1.6855
 Quadrupole moment (field-independent basis, Debye-Ang):
   XX=           -173.2422   YY=           -192.1622   ZZ=           -191.2420
   XY=              1.2569   XZ=             -4.2048   YZ=            -12.4474

 ESP charges:
               1
     1  O   -0.751048
     2  H    0.431362
     3  C    0.570619
     4  C   -0.002988
     5  H    0.005747
     6  C    0.041754
     7  H    0.014554
     8  C   -0.004336
     9  H   -0.009399
    10  C   -0.157625
    11  H    0.013016
    12  C   -0.196490
    13  H    0.011679
    14  H    0.039220
    15  C    0.503343
    16  C   -0.211674
    17  H    0.054927
    18  H    0.047644
    19  C   -0.071437
    20  H    0.024690
    21  H    0.030801
    22  C   -0.059183
    23  H    0.033034
    24  H    0.041767
    25  C   -0.061242
    26  H    0.048902
    27  H    0.037961
    28  C    0.119830
    29  H    0.004624
    30  C   -0.610108
    31  H    0.129170
    32  H    0.125032
    33  H    0.139583
    34  C   -0.152367
    35  C   -0.320476
    36  H    0.061460
    37  H    0.072429
    38  C   -0.248546
    39  H    0.142677
    40  C   -0.493820
    41  H    0.094375
    42  H    0.132651
    43  H    0.104287
    44  C   -0.270330
    45  H    0.081657
    46  H    0.098428
    47  C   -0.019207
    48  H    0.050509
    49  H    0.045611
    50  C    0.075847
    51  H   -0.035741
    52  H    0.000059
    53  C    0.416635
    54  H   -0.022639
    55  C   -0.430083
    56  H    0.093747
    57  H    0.096419
    58  H    0.105529
    59  C    0.026134
    60  H    0.007603
    61  H    0.001540
    62  C   -0.267029
    63  H    0.055085
    64  H    0.052387
    65  C    0.530902
    66  H   -0.074620
    67  C   -0.532747
    68  H    0.107544
    69  H    0.122173
    70  H    0.116870
    71  C   -0.442545
    72  H    0.093160
    73  H    0.090785
    74  H    0.099919
 Sum of ESP charges =   0.00000

 Normal termination of Gaussian 09 at Tue Mar 21 11:58:01 2017.
