 Gaussian 09, Revision D.01,
 Gaussian 09:  EM64L-G09RevD.01 24-Apr-2013

 ----------------------------------------------------------------------
 #P HF/6-31G* SCF(Conver=6) NoSymm Test Pop=mk IOp(6/33=2) GFInput GFPr
 int
 ----------------------------------------------------------------------

 ----------------------------------------------
 MEP - Input generated by R.E.D.-III.x MOLECULE
 ----------------------------------------------
 Symbolic Z-matrix:
 Charge =  0 Multiplicity = 1

                          Input orientation:
 ---------------------------------------------------------------------
 Center     Atomic      Atomic             Coordinates (Angstroms)
 Number     Number       Type             X           Y           Z
 ---------------------------------------------------------------------
      1          8           0        0.439721   -3.394480    7.251067
      2          1           0        0.275477   -4.335387    7.103902
      3          6           0        1.507470    1.501488    0.000000
      4          6           0        1.103902    0.000000    0.000000
      5          1           0        0.000000    0.000000    0.000000
      6          6           0        1.517376   -0.794969    1.245708
      7          1           0        2.614335   -0.814615    1.314575
      8          6           0        0.940029   -0.120187    2.517197
      9          1           0       -0.153274   -0.244961    2.445890
     10          6           0        0.951401    1.933963   -1.402083
     11          1           0       -0.143404    1.988735   -1.291184
     12          6           0        0.830809    2.131857    1.235249
     13          1           0       -0.259493    2.088036    1.098362
     14          1           0        1.087286    3.190308    1.344110
     15          6           0        1.365610   -0.852622    3.838220
     16          6           0        1.535772   -0.509986   -1.382469
     17          1           0        0.975827   -1.396777   -1.695752
     18          1           0        2.596120   -0.791565   -1.377670
     19          6           0        1.215007    1.401108    2.538606
     20          1           0        2.275677    1.584460    2.740676
     21          1           0        0.667456    1.863342    3.367785
     22          6           0        1.282828    0.704655   -2.316917
     23          1           0        2.165607    0.914378   -2.932785
     24          1           0        0.463119    0.502875   -3.012848
     25          6           0        1.026064   -2.249002    1.157686
     26          1           0        1.629672   -2.807839    0.430170
     27          1           0       -0.001325   -2.265939    0.757180
     28          6           0        1.403443    3.279633   -2.027463
     29          1           0        2.487957    3.218632   -2.206331
     30          6           0        3.039628    1.702015    0.052902
     31          1           0        3.288395    2.767011    0.106943
     32          1           0        3.491877    1.220839    0.923549
     33          1           0        3.536853    1.297362   -0.833929
     34          6           0        1.217446   -2.371624    3.672564
     35          6           0        0.415886   -0.394856    4.988878
     36          1           0       -0.618558   -0.452477    4.622409
     37          1           0        0.605145    0.659014    5.220177
     38          6           0        1.051465   -2.962124    2.479849
     39          1           0        0.927330   -4.045198    2.447775
     40          6           0        2.835366   -0.533341    4.222080
     41          1           0        2.951418    0.511934    4.525373
     42          1           0        3.174555   -1.149655    5.058342
     43          1           0        3.513093   -0.725095    3.384424
     44          6           0        1.265813   -3.201213    4.942244
     45          1           0        1.057674   -4.251636    4.701054
     46          1           0        2.269675   -3.172427    5.389139
     47          6           0        0.522055   -1.216645    6.281757
     48          1           0        1.510725   -1.103518    6.743802
     49          1           0       -0.209504   -0.857872    7.014680
     50          6           0        0.725446    3.484122   -3.405323
     51          1           0        0.819079    2.565181   -3.995124
     52          1           0       -0.353876    3.635066   -3.248529
     53          6           0        0.284024   -2.696163    6.009461
     54          1           0       -0.746112   -2.830429    5.639915
     55          6           0        1.139715    4.491444   -1.116325
     56          1           0        0.079787    4.548856   -0.837954
     57          1           0        1.401464    5.428161   -1.617184
     58          1           0        1.724103    4.450166   -0.194639
     59          6           0        1.282026    4.640495   -4.252709
     60          1           0        1.125522    5.595357   -3.738427
     61          1           0        2.369049    4.515051   -4.350452
     62          6           0        0.636109    4.699490   -5.646782
     63          1           0       -0.453618    4.783708   -5.524972
     64          1           0        0.809701    3.740218   -6.155587
     65          6           0        1.108489    5.836963   -6.582167
     66          1           0        0.548151    5.707472   -7.520018
     67          6           0        2.602514    5.734651   -6.931348
     68          1           0        2.853369    4.742880   -7.325856
     69          1           0        2.876989    6.475252   -7.691222
     70          1           0        3.235644    5.915878   -6.055120
     71          6           0        0.762444    7.233956   -6.040405
     72          1           0       -0.303411    7.314767   -5.796475
     73          1           0        0.994770    8.007591   -6.781202
     74          1           0        1.331902    7.469404   -5.133903
 ---------------------------------------------------------------------

 SCF Done:  E(RHF) =  -1124.07889833     A.U. after    9 cycles

 Alpha  occ. eigenvalues --  -20.55350 -11.27427 -11.23886 -11.22695 -11.22667
 Alpha  occ. eigenvalues --  -11.22521 -11.22342 -11.22301 -11.22133 -11.22055
 Alpha  occ. eigenvalues --  -11.22039 -11.21983 -11.21918 -11.21909 -11.21548
 Alpha  occ. eigenvalues --  -11.21518 -11.21441 -11.21433 -11.21418 -11.21389
 Alpha  occ. eigenvalues --  -11.21341 -11.21340 -11.21302 -11.21167 -11.21027
 Alpha  occ. eigenvalues --  -11.21020 -11.20915 -11.20815  -1.34653  -1.15847
 Alpha  occ. eigenvalues --   -1.13426  -1.09585  -1.07983  -1.06070  -1.05571
 Alpha  occ. eigenvalues --   -1.02649  -1.01348  -0.99563  -0.97725  -0.95786
 Alpha  occ. eigenvalues --   -0.92712  -0.92385  -0.91946  -0.90923  -0.90643
 Alpha  occ. eigenvalues --   -0.85955  -0.84119  -0.82347  -0.81733  -0.78637
 Alpha  occ. eigenvalues --   -0.76595  -0.76274  -0.74628  -0.73672  -0.71740
 Alpha  occ. eigenvalues --   -0.68972  -0.66832  -0.65059  -0.64307  -0.63812
 Alpha  occ. eigenvalues --   -0.63309  -0.62369  -0.62275  -0.60906  -0.60236
 Alpha  occ. eigenvalues --   -0.59519  -0.58896  -0.58508  -0.58304  -0.57839
 Alpha  occ. eigenvalues --   -0.56522  -0.56229  -0.55606  -0.55222  -0.54710
 Alpha  occ. eigenvalues --   -0.54537  -0.53648  -0.53296  -0.52757  -0.52514
 Alpha  occ. eigenvalues --   -0.52344  -0.51728  -0.51468  -0.51161  -0.50734
 Alpha  occ. eigenvalues --   -0.50597  -0.50192  -0.48564  -0.48324  -0.47843
 Alpha  occ. eigenvalues --   -0.47101  -0.47041  -0.46592  -0.46085  -0.45355
 Alpha  occ. eigenvalues --   -0.45170  -0.44935  -0.44469  -0.44122  -0.43720
 Alpha  occ. eigenvalues --   -0.43454  -0.43286  -0.42936  -0.42407  -0.41530
 Alpha  occ. eigenvalues --   -0.39773  -0.38395  -0.32776
 Alpha virt. eigenvalues --    0.18189   0.21220   0.21958   0.22250   0.22573
 Alpha virt. eigenvalues --    0.23407   0.24170   0.24666   0.24931   0.25950
 Alpha virt. eigenvalues --    0.26053   0.26326   0.26943   0.27561   0.28120

 Mulliken charges:
               1
     1  O   -0.765603
     2  H    0.433023
     3  C   -0.029021
     4  C   -0.158234
     5  H    0.151044
     6  C   -0.153676
     7  H    0.163571
     8  C   -0.154749
     9  H    0.155027
    10  C   -0.134983
    11  H    0.152563
    12  C   -0.298418
    13  H    0.151234
    14  H    0.163782
    15  C   -0.038450
    16  C   -0.316264
    17  H    0.165403
    18  H    0.158238
    19  C   -0.327686
    20  H    0.163849
    21  H    0.165919
    22  C   -0.335860
    23  H    0.160030
    24  H    0.167641
    25  C   -0.324501
    26  H    0.170172
    27  H    0.161244
    28  C   -0.149322
    29  H    0.152386
    30  C   -0.489013
    31  H    0.162802
    32  H    0.164703
    33  H    0.163853
    34  C    0.063519
    35  C   -0.326271
    36  H    0.160352
    37  H    0.169521
    38  C   -0.235033
    39  H    0.171921
    40  C   -0.480178
    41  H    0.162483
    42  H    0.168512
    43  H    0.165289
    44  C   -0.370666
    45  H    0.159867
    46  H    0.179314
    47  C   -0.327097
    48  H    0.171469
    49  H    0.178728
    50  C   -0.307218
    51  H    0.164952
    52  H    0.147577
    53  C    0.194441
    54  H    0.144542
    55  C   -0.484944
    56  H    0.153011
    57  H    0.163475
    58  H    0.162516
    59  C   -0.314761
    60  H    0.159605
    61  H    0.154026
    62  C   -0.300806
    63  H    0.151611
    64  H    0.151059
    65  C   -0.146370
    66  H    0.155388
    67  C   -0.476187
    68  H    0.156571
    69  H    0.158261
    70  H    0.156193
    71  C   -0.476303
    72  H    0.156930
    73  H    0.158499
    74  H    0.155497
 Sum of Mulliken charges =   0.00000

 Dipole moment (field-independent basis, Debye):
    X=             -0.3413    Y=             -0.4332    Z=             -1.7128  Tot=              1.7994
 Quadrupole moment (field-independent basis, Debye-Ang):
   XX=           -181.2571   YY=           -174.3303   ZZ=           -201.7446
   XY=              1.5920   XZ=             -2.6632   YZ=              1.3990

 ESP charges:
               1
     1  O   -0.744188
     2  H    0.432181
     3  C    0.604369
     4  C   -0.012777
     5  H   -0.007463
     6  C    0.060544
     7  H    0.018936
     8  C   -0.065521
     9  H    0.015938
    10  C   -0.020903
    11  H   -0.021238
    12  C   -0.163052
    13  H   -0.002892
    14  H    0.019766
    15  C    0.430299
    16  C   -0.203647
    17  H    0.052445
    18  H    0.040214
    19  C   -0.061257
    20  H    0.018728
    21  H    0.030435
    22  C   -0.080429
    23  H    0.032469
    24  H    0.040743
    25  C   -0.099493
    26  H    0.060351
    27  H    0.052684
    28  C    0.109165
    29  H    0.006721
    30  C   -0.587672
    31  H    0.116990
    32  H    0.117368
    33  H    0.123275
    34  C   -0.105097
    35  C   -0.331683
    36  H    0.073117
    37  H    0.087534
    38  C   -0.249330
    39  H    0.143842
    40  C   -0.478883
    41  H    0.102673
    42  H    0.129664
    43  H    0.107415
    44  C   -0.294126
    45  H    0.085182
    46  H    0.109491
    47  C   -0.027625
    48  H    0.056953
    49  H    0.048920
    50  C   -0.218244
    51  H    0.030309
    52  H    0.058891
    53  C    0.398570
    54  H   -0.012030
    55  C   -0.445882
    56  H    0.103199
    57  H    0.096430
    58  H    0.108911
    59  C    0.316825
    60  H   -0.021320
    61  H   -0.043800
    62  C   -0.378414
    63  H    0.059377
    64  H    0.070007
    65  C    0.450053
    66  H   -0.043828
    67  C   -0.434193
    68  H    0.093485
    69  H    0.096907
    70  H    0.093382
    71  C   -0.434860
    72  H    0.095130
    73  H    0.096454
    74  H    0.093508
 Sum of ESP charges =   0.00000

 Normal termination of Gaussian 09 at Tue Mar 21 11:52:49 2017.
