 Gaussian 09, Revision D.01,
 Gaussian 09:  EM64L-G09RevD.01 24-Apr-2013

 ----------------------------------------------------------------------
 #P HF/6-31G* SCF(Conver=6) NoSymm Test Pop=mk IOp(6/33=2) GFInput GFPr
 int
 ----------------------------------------------------------------------

 ----------------------------------------------
 MEP - Input generated by R.E.D.-III.x MOLECULE
 ----------------------------------------------
 Symbolic Z-matrix:
 Charge =  0 Multiplicity = 1

                          Input orientation:
 ---------------------------------------------------------------------
 Center     Atomic      Atomic             Coordinates (Angstroms)
 Number     Number       Type             X           Y           Z
 ---------------------------------------------------------------------
      1          8           0        4.966531   -0.231850   -7.271224
      2          1           0        5.919140   -0.312015   -7.129612
      3          6           0        0.000000    0.000000    0.000000
      4          6           0        1.556684    0.000000    0.000000
      5          1           0        1.845409    1.064888    0.000000
      6          6           0        2.214583   -0.600842   -1.248901
      7          1           0        1.960421   -1.667846   -1.316991
      8          6           0        1.699015    0.127228   -2.518977
      9          1           0        2.098045    1.153011   -2.451495
     10          6           0       -0.245425    0.664860    1.399271
     11          1           0        0.101763    1.699537    1.270909
     12          6           0       -0.442623    0.814712   -1.230969
     13          1           0       -0.118935    1.857347   -1.103685
     14          1           0       -1.534941    0.834340   -1.324808
     15          6           0        2.292573   -0.472628   -3.842228
     16          6           0        1.937065   -0.554256    1.384996
     17          1           0        2.930453   -0.225289    1.706114
     18          1           0        1.957126   -1.651078    1.370236
     19          6           0        0.156603    0.250456   -2.535863
     20          1           0       -0.293745   -0.728101   -2.732331
     21          1           0       -0.151447    0.895545   -3.366406
     22          6           0        0.809949   -0.028259    2.319595
     23          1           0        0.362544   -0.850341    2.887338
     24          1           0        1.192093    0.682500    3.060646
     25          6           0        3.745880   -0.489768   -1.170154
     26          1           0        4.139193   -1.211520   -0.441910
     27          1           0        4.022968    0.502061   -0.775596
     28          6           0       -1.641454    0.797477    2.073193
     29          1           0       -1.414175    1.252774    3.049273
     30          6           0       -0.575543   -1.433420   -0.077284
     31          1           0       -1.657102   -1.407325   -0.238350
     32          1           0       -0.143435   -2.003711   -0.903248
     33          1           0       -0.393312   -2.003539    0.837338
     34          6           0        3.800556   -0.714189   -3.684513
     35          6           0        2.084819    0.559718   -4.994139
     36          1           0        2.405551    1.546350   -4.631647
     37          1           0        1.016219    0.644033   -5.219780
     38          6           0        4.421275   -0.699393   -2.495690
     39          1           0        5.500630   -0.853639   -2.469871
     40          6           0        1.608835   -1.814041   -4.219825
     41          1           0        0.566274   -1.662055   -4.516463
     42          1           0        2.113597   -2.299296   -5.058875
     43          1           0        1.628124   -2.517252   -3.381477
     44          6           0        4.583395   -0.975222   -4.958003
     45          1           0        5.653577   -1.040013   -4.722703
     46          1           0        4.298065   -1.940093   -5.400621
     47          6           0        2.845251    0.245055   -6.290602
     48          1           0        2.481830   -0.683432   -6.748364
     49          1           0        2.679986    1.042059   -7.024461
     50          6           0       -2.616197    1.759652    1.350570
     51          1           0       -2.866372    1.341585    0.367261
     52          1           0       -3.557974    1.760615    1.918452
     53          6           0        4.338256    0.099733   -6.026723
     54          1           0        4.732273    1.062894   -5.662264
     55          6           0       -2.387753   -0.513488    2.394203
     56          1           0       -2.852388   -0.951384    1.505955
     57          1           0       -3.190858   -0.311544    3.112121
     58          1           0       -1.737884   -1.272264    2.839795
     59          6           0       -2.173502    3.224873    1.170122
     60          1           0       -1.264873    3.271074    0.559252
     61          1           0       -2.952137    3.731514    0.585941
     62          6           0       -1.956116    3.981420    2.491239
     63          1           0       -1.128067    3.518477    3.044422
     64          1           0       -2.849581    3.852451    3.119966
     65          6           0       -1.660819    5.495853    2.373648
     66          1           0       -1.520368    5.855595    3.403747
     67          6           0       -2.836480    6.288168    1.777904
     68          1           0       -3.767308    6.090669    2.322507
     69          1           0       -2.643447    7.365924    1.827083
     70          1           0       -3.004732    6.035370    0.724790
     71          6           0       -0.356707    5.786933    1.612470
     72          1           0        0.487396    5.233121    2.040228
     73          1           0       -0.110670    6.854148    1.654176
     74          1           0       -0.436378    5.511320    0.554558
 ---------------------------------------------------------------------

 SCF Done:  E(RHF) =  -1124.07095502     A.U. after    9 cycles

 Alpha  occ. eigenvalues --  -20.55358 -11.27436 -11.23911 -11.22709 -11.22681
 Alpha  occ. eigenvalues --  -11.22584 -11.22425 -11.22358 -11.22142 -11.22052
 Alpha  occ. eigenvalues --  -11.22019 -11.21996 -11.21935 -11.21920 -11.21573
 Alpha  occ. eigenvalues --  -11.21525 -11.21497 -11.21485 -11.21436 -11.21417
 Alpha  occ. eigenvalues --  -11.21411 -11.21400 -11.21359 -11.21178 -11.21115
 Alpha  occ. eigenvalues --  -11.21048 -11.20833 -11.20772  -1.34660  -1.15849
 Alpha  occ. eigenvalues --   -1.13403  -1.09545  -1.07897  -1.06060  -1.05542
 Alpha  occ. eigenvalues --   -1.02646  -1.01332  -0.99526  -0.97695  -0.95888
 Alpha  occ. eigenvalues --   -0.92451  -0.92334  -0.92221  -0.91448  -0.90567
 Alpha  occ. eigenvalues --   -0.85964  -0.84105  -0.82522  -0.81813  -0.79053
 Alpha  occ. eigenvalues --   -0.76742  -0.76310  -0.74731  -0.73115  -0.71022
 Alpha  occ. eigenvalues --   -0.68943  -0.66835  -0.64633  -0.64264  -0.63782
 Alpha  occ. eigenvalues --   -0.63262  -0.62568  -0.62427  -0.60972  -0.60015
 Alpha  occ. eigenvalues --   -0.59440  -0.59065  -0.58690  -0.58226  -0.57455
 Alpha  occ. eigenvalues --   -0.56911  -0.56132  -0.55830  -0.55396  -0.54931
 Alpha  occ. eigenvalues --   -0.54320  -0.53779  -0.53435  -0.53198  -0.52542
 Alpha  occ. eigenvalues --   -0.52489  -0.51805  -0.51387  -0.51285  -0.50747
 Alpha  occ. eigenvalues --   -0.50376  -0.49995  -0.48582  -0.48470  -0.47936
 Alpha  occ. eigenvalues --   -0.47664  -0.47293  -0.46821  -0.46223  -0.45381
 Alpha  occ. eigenvalues --   -0.45140  -0.44660  -0.44524  -0.43832  -0.43463
 Alpha  occ. eigenvalues --   -0.43340  -0.42889  -0.42654  -0.42230  -0.41539
 Alpha  occ. eigenvalues --   -0.39765  -0.38439  -0.32788
 Alpha virt. eigenvalues --    0.18162   0.20138   0.21616   0.22407   0.22690
 Alpha virt. eigenvalues --    0.23169   0.23744   0.24436   0.24889   0.25140
 Alpha virt. eigenvalues --    0.26077   0.26506   0.26986   0.27724   0.28060

 Mulliken charges:
               1
     1  O   -0.765591
     2  H    0.433045
     3  C   -0.021916
     4  C   -0.160823
     5  H    0.150898
     6  C   -0.154349
     7  H    0.163862
     8  C   -0.154683
     9  H    0.154865
    10  C   -0.154058
    11  H    0.158784
    12  C   -0.302186
    13  H    0.152581
    14  H    0.161725
    15  C   -0.038560
    16  C   -0.316220
    17  H    0.165188
    18  H    0.158797
    19  C   -0.327723
    20  H    0.165371
    21  H    0.165949
    22  C   -0.327903
    23  H    0.161175
    24  H    0.162678
    25  C   -0.323991
    26  H    0.170326
    27  H    0.161124
    28  C   -0.147599
    29  H    0.157456
    30  C   -0.486750
    31  H    0.161422
    32  H    0.163899
    33  H    0.165079
    34  C    0.063552
    35  C   -0.326312
    36  H    0.160332
    37  H    0.169499
    38  C   -0.235110
    39  H    0.172026
    40  C   -0.480037
    41  H    0.162551
    42  H    0.168557
    43  H    0.165305
    44  C   -0.370724
    45  H    0.159927
    46  H    0.179349
    47  C   -0.327109
    48  H    0.171541
    49  H    0.178759
    50  C   -0.303317
    51  H    0.156275
    52  H    0.152106
    53  C    0.194437
    54  H    0.144567
    55  C   -0.481416
    56  H    0.156765
    57  H    0.158150
    58  H    0.159858
    59  C   -0.321855
    60  H    0.161937
    61  H    0.159699
    62  C   -0.305126
    63  H    0.154895
    64  H    0.150609
    65  C   -0.145683
    66  H    0.155330
    67  C   -0.476458
    68  H    0.157083
    69  H    0.158444
    70  H    0.156048
    71  C   -0.476963
    72  H    0.155672
    73  H    0.158957
    74  H    0.156008
 Sum of Mulliken charges =   0.00000

 Dipole moment (field-independent basis, Debye):
    X=              0.4838    Y=              0.3121    Z=              1.6861  Tot=              1.7817
 Quadrupole moment (field-independent basis, Debye-Ang):
   XX=           -171.6484   YY=           -181.5589   ZZ=           -201.6312
   XY=              0.3134   XZ=              3.4743   YZ=             -0.6104

 ESP charges:
               1
     1  O   -0.742303
     2  H    0.429733
     3  C    0.837403
     4  C   -0.186433
     5  H    0.003554
     6  C    0.086180
     7  H    0.014154
     8  C   -0.187320
     9  H    0.040681
    10  C   -0.071564
    11  H    0.021420
    12  C   -0.311900
    13  H    0.068321
    14  H    0.053221
    15  C    0.597924
    16  C    0.079102
    17  H    0.003017
    18  H   -0.013305
    19  C   -0.126394
    20  H    0.046400
    21  H    0.059792
    22  C   -0.355392
    23  H    0.078369
    24  H    0.085583
    25  C   -0.052547
    26  H    0.039901
    27  H    0.046118
    28  C    0.365902
    29  H   -0.014936
    30  C   -0.633207
    31  H    0.113441
    32  H    0.122895
    33  H    0.134469
    34  C   -0.176359
    35  C   -0.311573
    36  H    0.062587
    37  H    0.069959
    38  C   -0.252276
    39  H    0.146270
    40  C   -0.457791
    41  H    0.086544
    42  H    0.115935
    43  H    0.097053
    44  C   -0.257991
    45  H    0.079056
    46  H    0.099257
    47  C   -0.053388
    48  H    0.056280
    49  H    0.055212
    50  C   -0.342027
    51  H    0.039715
    52  H    0.090084
    53  C    0.398247
    54  H   -0.015100
    55  C   -0.583277
    56  H    0.130501
    57  H    0.125866
    58  H    0.134071
    59  C    0.222474
    60  H   -0.093477
    61  H   -0.003459
    62  C   -0.323730
    63  H    0.047984
    64  H    0.055812
    65  C    0.500044
    66  H   -0.057229
    67  C   -0.466665
    68  H    0.098361
    69  H    0.101305
    70  H    0.106091
    71  C   -0.481042
    72  H    0.102748
    73  H    0.103383
    74  H    0.118266
 Sum of ESP charges =   0.00000

 Normal termination of Gaussian 09 at Tue Mar 21 12:41:58 2017.
