 Gaussian 09, Revision D.01,
 Gaussian 09:  EM64L-G09RevD.01 24-Apr-2013

 ----------------------------------------------------------------------
 #P HF/6-31G* SCF(Conver=6) NoSymm Test Pop=mk IOp(6/33=2) GFInput GFPr
 int
 ----------------------------------------------------------------------

 ----------------------------------------------
 MEP - Input generated by R.E.D.-III.x MOLECULE
 ----------------------------------------------
 Symbolic Z-matrix:
 Charge =  0 Multiplicity = 1

                          Input orientation:
 ---------------------------------------------------------------------
 Center     Atomic      Atomic             Coordinates (Angstroms)
 Number     Number       Type             X           Y           Z
 ---------------------------------------------------------------------
      1          8           0        4.970696   -0.223117   -7.269009
      2          1           0        5.923140   -0.304269   -7.126846
      3          6           0        0.000000    0.000000    0.000000
      4          6           0        1.556663    0.000000    0.000000
      5          1           0        1.845475    1.064875    0.000000
      6          6           0        2.215207   -0.600847   -1.248833
      7          1           0        1.961922   -1.668100   -1.316906
      8          6           0        1.698805    0.126813   -2.518954
      9          1           0        2.095357    1.153491   -2.450586
     10          6           0       -0.245268    0.666683    1.398394
     11          1           0        0.102475    1.701003    1.268896
     12          6           0       -0.443111    0.812605   -1.232084
     13          1           0       -0.119229    1.855425   -1.106952
     14          1           0       -1.535488    0.831952   -1.325561
     15          6           0        2.294124   -0.470387   -3.842574
     16          6           0        1.936498   -0.553788    1.385330
     17          1           0        2.930056   -0.225497    1.706586
     18          1           0        1.955513   -1.650630    1.371196
     19          6           0        0.156221    0.246225   -2.535843
     20          1           0       -0.291714   -0.733992   -2.729507
     21          1           0       -0.153938    0.888369   -3.367859
     22          6           0        0.809608   -0.026316    2.319435
     23          1           0        0.361690   -0.847613    2.887925
     24          1           0        1.192232    0.684920    3.059777
     25          6           0        3.746328   -0.488673   -1.169681
     26          1           0        4.139877   -1.210423   -0.441567
     27          1           0        4.022666    0.503155   -0.774630
     28          6           0       -1.641503    0.800252    2.072067
     29          1           0       -1.412976    1.256343    3.047846
     30          6           0       -0.575049   -1.433910   -0.075078
     31          1           0       -1.656157   -1.408856   -0.239502
     32          1           0       -0.140214   -2.006344   -0.898141
     33          1           0       -0.395202   -2.001481    0.841594
     34          6           0        3.801981   -0.711649   -3.684127
     35          6           0        2.087338    0.564479   -4.992399
     36          1           0        2.407671    1.550304   -4.627395
     37          1           0        1.018975    0.649352   -5.218998
     38          6           0        4.422248   -0.697455   -2.495058
     39          1           0        5.501618   -0.851471   -2.468928
     40          6           0        1.610912   -1.810989   -4.223758
     41          1           0        0.568611   -1.658238   -4.520884
     42          1           0        2.116372   -2.294373   -5.063447
     43          1           0        1.629435   -2.516015   -3.386937
     44          6           0        4.585403   -0.971041   -4.957497
     45          1           0        5.655396   -1.036976   -4.721678
     46          1           0        4.299652   -1.934830   -5.402131
     47          6           0        2.848992    0.253102   -6.289067
     48          1           0        2.485598   -0.673820   -6.750078
     49          1           0        2.684754    1.052337   -7.020727
     50          6           0       -2.615873    1.763707    1.351312
     51          1           0       -2.865405    1.351072    0.365521
     52          1           0       -3.559330    1.756931    1.913908
     53          6           0        4.341693    0.106265   -6.024307
     54          1           0        4.736080    1.068382   -5.657476
     55          6           0       -2.387833   -0.510307    2.394608
     56          1           0       -2.851885   -0.949415    1.506711
     57          1           0       -3.191571   -0.307684    3.111687
     58          1           0       -1.738400   -1.268410    2.841923
     59          6           0       -2.163673    3.225708    1.168604
     60          1           0       -1.289134    3.264450    0.508468
     61          1           0       -2.956737    3.757816    0.627663
     62          6           0       -1.822263    3.995442    2.459097
     63          1           0       -1.501183    5.009764    2.179078
     64          1           0       -0.950144    3.530786    2.938800
     65          6           0       -2.946002    4.119170    3.509762
     66          1           0       -3.257283    3.105955    3.802653
     67          6           0       -4.182333    4.851486    2.964173
     68          1           0       -4.630115    4.329255    2.112561
     69          1           0       -4.954425    4.944387    3.736405
     70          1           0       -3.919610    5.864933    2.633725
     71          6           0       -2.417884    4.820335    4.771721
     72          1           0       -1.558086    4.288124    5.194793
     73          1           0       -3.190110    4.880009    5.547164
     74          1           0       -2.095855    5.844647    4.543907
 ---------------------------------------------------------------------

 SCF Done:  E(RHF) =  -1124.07120851     A.U. after    9 cycles

 Alpha  occ. eigenvalues --  -20.55365 -11.27443 -11.23919 -11.22718 -11.22702
 Alpha  occ. eigenvalues --  -11.22495 -11.22474 -11.22369 -11.22148 -11.22068
 Alpha  occ. eigenvalues --  -11.22050 -11.22009 -11.21943 -11.21930 -11.21592
 Alpha  occ. eigenvalues --  -11.21574 -11.21512 -11.21507 -11.21447 -11.21437
 Alpha  occ. eigenvalues --  -11.21431 -11.21408 -11.21378 -11.21187 -11.21089
 Alpha  occ. eigenvalues --  -11.21062 -11.20887 -11.20791  -1.34667  -1.15865
 Alpha  occ. eigenvalues --   -1.13422  -1.09673  -1.07894  -1.06059  -1.05496
 Alpha  occ. eigenvalues --   -1.02659  -1.01329  -0.99611  -0.97708  -0.95912
 Alpha  occ. eigenvalues --   -0.92507  -0.92336  -0.92234  -0.91479  -0.90581
 Alpha  occ. eigenvalues --   -0.85974  -0.83859  -0.82429  -0.81826  -0.79257
 Alpha  occ. eigenvalues --   -0.76741  -0.76405  -0.74741  -0.73222  -0.71132
 Alpha  occ. eigenvalues --   -0.68955  -0.66843  -0.64792  -0.64335  -0.64157
 Alpha  occ. eigenvalues --   -0.63305  -0.62627  -0.61906  -0.60835  -0.60139
 Alpha  occ. eigenvalues --   -0.59610  -0.58855  -0.58260  -0.57911  -0.57870
 Alpha  occ. eigenvalues --   -0.57128  -0.56355  -0.55877  -0.55291  -0.54922
 Alpha  occ. eigenvalues --   -0.54317  -0.53649  -0.53325  -0.53045  -0.52651
 Alpha  occ. eigenvalues --   -0.52402  -0.51818  -0.51315  -0.51128  -0.50652
 Alpha  occ. eigenvalues --   -0.50562  -0.50197  -0.49321  -0.48486  -0.47956
 Alpha  occ. eigenvalues --   -0.47636  -0.47034  -0.46706  -0.46288  -0.45435
 Alpha  occ. eigenvalues --   -0.44862  -0.44677  -0.44371  -0.44210  -0.43762
 Alpha  occ. eigenvalues --   -0.43407  -0.42914  -0.42641  -0.42086  -0.41541
 Alpha  occ. eigenvalues --   -0.39778  -0.38471  -0.32797
 Alpha virt. eigenvalues --    0.18150   0.19845   0.21906   0.22443   0.22528
 Alpha virt. eigenvalues --    0.23219   0.23596   0.24427   0.24629   0.25232
 Alpha virt. eigenvalues --    0.26054   0.26385   0.26849   0.27517   0.28112

 Mulliken charges:
               1
     1  O   -0.765566
     2  H    0.433056
     3  C   -0.021429
     4  C   -0.160898
     5  H    0.150914
     6  C   -0.154289
     7  H    0.163825
     8  C   -0.154688
     9  H    0.154818
    10  C   -0.154280
    11  H    0.159873
    12  C   -0.302548
    13  H    0.152984
    14  H    0.161726
    15  C   -0.038567
    16  C   -0.316219
    17  H    0.165325
    18  H    0.158849
    19  C   -0.327685
    20  H    0.165408
    21  H    0.166047
    22  C   -0.328205
    23  H    0.161115
    24  H    0.162885
    25  C   -0.323979
    26  H    0.170335
    27  H    0.161138
    28  C   -0.147038
    29  H    0.156150
    30  C   -0.486928
    31  H    0.161365
    32  H    0.163991
    33  H    0.165105
    34  C    0.063626
    35  C   -0.326290
    36  H    0.160329
    37  H    0.169485
    38  C   -0.235170
    39  H    0.172061
    40  C   -0.480046
    41  H    0.162604
    42  H    0.168590
    43  H    0.165248
    44  C   -0.370760
    45  H    0.159938
    46  H    0.179357
    47  C   -0.327090
    48  H    0.171551
    49  H    0.178753
    50  C   -0.309299
    51  H    0.156952
    52  H    0.156155
    53  C    0.194434
    54  H    0.144549
    55  C   -0.481382
    56  H    0.157203
    57  H    0.157466
    58  H    0.160066
    59  C   -0.320527
    60  H    0.161892
    61  H    0.159155
    62  C   -0.303285
    63  H    0.151255
    64  H    0.154598
    65  C   -0.151989
    66  H    0.155532
    67  C   -0.476943
    68  H    0.162371
    69  H    0.158424
    70  H    0.152231
    71  C   -0.471515
    72  H    0.156968
    73  H    0.158316
    74  H    0.152597
 Sum of Mulliken charges =   0.00000

 Dipole moment (field-independent basis, Debye):
    X=              0.4898    Y=              0.2151    Z=              1.5828  Tot=              1.6707
 Quadrupole moment (field-independent basis, Debye-Ang):
   XX=           -171.5397   YY=           -182.0623   ZZ=           -202.4088
   XY=              0.6192   XZ=              3.4144   YZ=             -1.7494

 ESP charges:
               1
     1  O   -0.744497
     2  H    0.431289
     3  C    0.701672
     4  C   -0.164742
     5  H    0.007869
     6  C    0.039008
     7  H    0.025170
     8  C   -0.082219
     9  H    0.022458
    10  C    0.042509
    11  H   -0.013206
    12  C   -0.236440
    13  H    0.037514
    14  H    0.044945
    15  C    0.556931
    16  C    0.066705
    17  H    0.005256
    18  H   -0.007180
    19  C   -0.148073
    20  H    0.046305
    21  H    0.055249
    22  C   -0.354623
    23  H    0.075326
    24  H    0.083588
    25  C   -0.040252
    26  H    0.039764
    27  H    0.042498
    28  C    0.310951
    29  H   -0.021074
    30  C   -0.610697
    31  H    0.112890
    32  H    0.120342
    33  H    0.135306
    34  C   -0.171551
    35  C   -0.324658
    36  H    0.061397
    37  H    0.072492
    38  C   -0.259753
    39  H    0.147480
    40  C   -0.448381
    41  H    0.084645
    42  H    0.116026
    43  H    0.093129
    44  C   -0.249743
    45  H    0.077167
    46  H    0.097714
    47  C   -0.020358
    48  H    0.049159
    49  H    0.048035
    50  C   -0.180824
    51  H    0.022028
    52  H    0.052927
    53  C    0.388058
    54  H   -0.013972
    55  C   -0.595946
    56  H    0.127328
    57  H    0.133666
    58  H    0.138434
    59  C   -0.083940
    60  H    0.004458
    61  H    0.038361
    62  C   -0.080260
    63  H    0.017031
    64  H   -0.003698
    65  C    0.483904
    66  H   -0.059073
    67  C   -0.464917
    68  H    0.098871
    69  H    0.099435
    70  H    0.102859
    71  C   -0.497828
    72  H    0.097973
    73  H    0.113829
    74  H    0.107952
 Sum of ESP charges =   0.00000

 Normal termination of Gaussian 09 at Tue Mar 21 12:45:38 2017.
