 Gaussian 09, Revision D.01,
 Gaussian 09:  EM64L-G09RevD.01 24-Apr-2013

 ----------------------------------------------------------------------
 #P HF/6-31G* SCF(Conver=6) NoSymm Test Pop=mk IOp(6/33=2) GFInput GFPr
 int
 ----------------------------------------------------------------------

 ----------------------------------------------
 MEP - Input generated by R.E.D.-III.x MOLECULE
 ----------------------------------------------
 Symbolic Z-matrix:
 Charge =  0 Multiplicity = 1

                          Input orientation:
 ---------------------------------------------------------------------
 Center     Atomic      Atomic             Coordinates (Angstroms)
 Number     Number       Type             X           Y           Z
 ---------------------------------------------------------------------
      1          8           0        4.908700   -0.186872   -7.293764
      2          1           0        5.860898   -0.282800   -7.159386
      3          6           0        0.000000    0.000000    0.000000
      4          6           0        1.550016    0.000000    0.000000
      5          1           0        1.839029    1.064905    0.000000
      6          6           0        2.193626   -0.597212   -1.257218
      7          1           0        1.922910   -1.659596   -1.335352
      8          6           0        1.677884    0.156617   -2.514443
      9          1           0        2.095799    1.173929   -2.435079
     10          6           0       -0.259369    0.647047    1.396375
     11          1           0        0.079180    1.686189    1.273610
     12          6           0       -0.455023    0.843545   -1.203933
     13          1           0       -0.129191    1.882603   -1.050165
     14          1           0       -1.550275    0.867157   -1.283461
     15          6           0        2.253888   -0.434879   -3.849707
     16          6           0        1.929020   -0.549922    1.388834
     17          1           0        2.914117   -0.202977    1.716433
     18          1           0        1.970092   -1.646169    1.375486
     19          6           0        0.135740    0.310687   -2.526410
     20          1           0       -0.332984   -0.651570   -2.755940
     21          1           0       -0.157400    0.987532   -3.336720
     22          6           0        0.784940   -0.048669    2.325323
     23          1           0        0.341749   -0.889304    2.866104
     24          1           0        1.158807    0.644905    3.085720
     25          6           0        3.726293   -0.506265   -1.189284
     26          1           0        4.115310   -1.240723   -0.471417
     27          1           0        4.018273    0.477657   -0.785739
     28          6           0       -1.724175    0.755843    1.915942
     29          1           0       -2.360462    0.864782    1.026374
     30          6           0       -0.593858   -1.423068   -0.092794
     31          1           0       -1.687926   -1.381067   -0.094643
     32          1           0       -0.290142   -1.936931   -1.008058
     33          1           0       -0.287800   -2.055138    0.745693
     34          6           0        3.759475   -0.700042   -3.705999
     35          6           0        2.052866    0.614590   -4.987290
     36          1           0        2.388792    1.592248   -4.614396
     37          1           0        0.984121    0.715737   -5.205082
     38          6           0        4.389287   -0.709327   -2.521920
     39          1           0        5.466432   -0.879452   -2.506326
     40          6           0        1.549057   -1.762040   -4.239143
     41          1           0        0.507653   -1.591920   -4.529877
     42          1           0        2.043310   -2.245223   -5.085580
     43          1           0        1.561743   -2.474556   -3.408585
     44          6           0        4.529137   -0.956134   -4.988423
     45          1           0        5.599787   -1.040541   -4.761648
     46          1           0        4.225868   -1.910382   -5.441907
     47          6           0        2.800755    0.306863   -6.292835
     48          1           0        2.421227   -0.610035   -6.760868
     49          1           0        2.642092    1.116099   -7.014666
     50          6           0       -2.235339   -0.462997    2.723020
     51          1           0       -1.898708   -1.395488    2.257769
     52          1           0       -1.770278   -0.437503    3.717793
     53          6           0        4.293190    0.136708   -6.040801
     54          1           0        4.703399    1.089023   -5.665860
     55          6           0       -1.884465    2.047183    2.744637
     56          1           0       -1.220378    2.034605    3.618135
     57          1           0       -2.907816    2.176880    3.110824
     58          1           0       -1.634419    2.932140    2.149019
     59          6           0       -3.765258   -0.550534    2.908250
     60          1           0       -3.964006   -1.326394    3.658185
     61          1           0       -4.143434    0.384799    3.337916
     62          6           0       -4.537484   -0.886811    1.621130
     63          1           0       -4.124512   -1.814712    1.199131
     64          1           0       -4.357286   -0.105649    0.870621
     65          6           0       -6.068222   -1.061479    1.765497
     66          1           0       -6.440134   -1.295511    0.756921
     67          6           0       -6.772358    0.229124    2.216728
     68          1           0       -6.510748    1.074063    1.568849
     69          1           0       -7.861405    0.109835    2.185942
     70          1           0       -6.502738    0.499164    3.244247
     71          6           0       -6.450239   -2.244397    2.670876
     72          1           0       -5.954878   -3.168544    2.350394
     73          1           0       -7.531848   -2.419664    2.645752
     74          1           0       -6.174105   -2.061580    3.715682
 ---------------------------------------------------------------------

 SCF Done:  E(RHF) =  -1124.07416196     A.U. after    9 cycles

 Alpha  occ. eigenvalues --  -20.55359 -11.27435 -11.23924 -11.22707 -11.22570
 Alpha  occ. eigenvalues --  -11.22405 -11.22392 -11.22314 -11.22139 -11.22057
 Alpha  occ. eigenvalues --  -11.21987 -11.21938 -11.21912 -11.21837 -11.21540
 Alpha  occ. eigenvalues --  -11.21535 -11.21505 -11.21468 -11.21463 -11.21432
 Alpha  occ. eigenvalues --  -11.21404 -11.21349 -11.21347 -11.21185 -11.21059
 Alpha  occ. eigenvalues --  -11.21035 -11.20936 -11.20853  -1.34661  -1.15882
 Alpha  occ. eigenvalues --   -1.13444  -1.09543  -1.07904  -1.06073  -1.05464
 Alpha  occ. eigenvalues --   -1.02622  -1.01333  -0.99538  -0.97735  -0.95701
 Alpha  occ. eigenvalues --   -0.92416  -0.92334  -0.91859  -0.91399  -0.90687
 Alpha  occ. eigenvalues --   -0.85968  -0.84335  -0.82505  -0.81895  -0.79230
 Alpha  occ. eigenvalues --   -0.76641  -0.76395  -0.74485  -0.72506  -0.71489
 Alpha  occ. eigenvalues --   -0.68979  -0.66847  -0.64713  -0.64448  -0.63670
 Alpha  occ. eigenvalues --   -0.62999  -0.62879  -0.61833  -0.61121  -0.60536
 Alpha  occ. eigenvalues --   -0.59463  -0.58891  -0.58710  -0.58451  -0.57742
 Alpha  occ. eigenvalues --   -0.56651  -0.56097  -0.55692  -0.55467  -0.54684
 Alpha  occ. eigenvalues --   -0.54078  -0.53696  -0.53279  -0.52993  -0.52471
 Alpha  occ. eigenvalues --   -0.52339  -0.52129  -0.51767  -0.51234  -0.50862
 Alpha  occ. eigenvalues --   -0.50417  -0.49786  -0.48927  -0.48490  -0.47962
 Alpha  occ. eigenvalues --   -0.47568  -0.47171  -0.46622  -0.46056  -0.45443
 Alpha  occ. eigenvalues --   -0.45149  -0.44617  -0.44570  -0.43713  -0.43675
 Alpha  occ. eigenvalues --   -0.43328  -0.42945  -0.42496  -0.42232  -0.41505
 Alpha  occ. eigenvalues --   -0.39800  -0.38610  -0.32785
 Alpha virt. eigenvalues --    0.18169   0.20939   0.21950   0.22257   0.22620
 Alpha virt. eigenvalues --    0.23635   0.23719   0.23898   0.24761   0.25631
 Alpha virt. eigenvalues --    0.26204   0.26681   0.26761   0.27340   0.28193

 Mulliken charges:
               1
     1  O   -0.765601
     2  H    0.433044
     3  C   -0.030998
     4  C   -0.157836
     5  H    0.150865
     6  C   -0.153889
     7  H    0.164178
     8  C   -0.155179
     9  H    0.155247
    10  C   -0.146679
    11  H    0.156187
    12  C   -0.296158
    13  H    0.151403
    14  H    0.157124
    15  C   -0.038352
    16  C   -0.317954
    17  H    0.165055
    18  H    0.158285
    19  C   -0.328252
    20  H    0.164926
    21  H    0.166498
    22  C   -0.329730
    23  H    0.167921
    24  H    0.163902
    25  C   -0.323971
    26  H    0.170199
    27  H    0.161189
    28  C   -0.149018
    29  H    0.162954
    30  C   -0.491611
    31  H    0.166067
    32  H    0.165078
    33  H    0.163478
    34  C    0.063344
    35  C   -0.326415
    36  H    0.160363
    37  H    0.169581
    38  C   -0.235067
    39  H    0.172050
    40  C   -0.480355
    41  H    0.162293
    42  H    0.168634
    43  H    0.165594
    44  C   -0.370757
    45  H    0.159935
    46  H    0.179283
    47  C   -0.327099
    48  H    0.171474
    49  H    0.178737
    50  C   -0.317943
    51  H    0.163101
    52  H    0.155479
    53  C    0.194452
    54  H    0.144578
    55  C   -0.482684
    56  H    0.154287
    57  H    0.161408
    58  H    0.157884
    59  C   -0.317274
    60  H    0.159786
    61  H    0.158234
    62  C   -0.306146
    63  H    0.151479
    64  H    0.153893
    65  C   -0.145533
    66  H    0.155254
    67  C   -0.476588
    68  H    0.156486
    69  H    0.158772
    70  H    0.156225
    71  C   -0.476753
    72  H    0.156815
    73  H    0.158553
    74  H    0.156268
 Sum of Mulliken charges =   0.00000

 Dipole moment (field-independent basis, Debye):
    X=              0.4438    Y=              0.1290    Z=              1.5224  Tot=              1.5910
 Quadrupole moment (field-independent basis, Debye-Ang):
   XX=           -171.4367   YY=           -181.4943   ZZ=           -202.5122
   XY=              0.5517   XZ=              3.8355   YZ=             -1.3922

 ESP charges:
               1
     1  O   -0.744499
     2  H    0.431469
     3  C    0.328421
     4  C    0.076609
     5  H    0.011203
     6  C    0.002860
     7  H    0.033352
     8  C   -0.055673
     9  H    0.014238
    10  C   -0.183090
    11  H    0.051818
    12  C   -0.313828
    13  H    0.051851
    14  H    0.074258
    15  C    0.479534
    16  C   -0.198202
    17  H    0.046189
    18  H    0.051284
    19  C    0.020955
    20  H    0.026420
    21  H    0.016893
    22  C   -0.039184
    23  H    0.020418
    24  H    0.037323
    25  C   -0.078343
    26  H    0.054822
    27  H    0.043411
    28  C    0.358746
    29  H   -0.015745
    30  C   -0.507538
    31  H    0.113281
    32  H    0.113461
    33  H    0.126209
    34  C   -0.148250
    35  C   -0.286242
    36  H    0.054384
    37  H    0.063042
    38  C   -0.240082
    39  H    0.142470
    40  C   -0.413330
    41  H    0.072148
    42  H    0.110827
    43  H    0.087684
    44  C   -0.280669
    45  H    0.084550
    46  H    0.104422
    47  C   -0.030725
    48  H    0.053171
    49  H    0.047233
    50  C   -0.191740
    51  H    0.059744
    52  H    0.024526
    53  C    0.398018
    54  H   -0.014287
    55  C   -0.547577
    56  H    0.125138
    57  H    0.139921
    58  H    0.108110
    59  C    0.144128
    60  H   -0.013037
    61  H   -0.023842
    62  C   -0.259352
    63  H    0.034121
    64  H    0.041973
    65  C    0.472588
    66  H   -0.058141
    67  C   -0.451647
    68  H    0.095622
    69  H    0.099656
    70  H    0.102119
    71  C   -0.465379
    72  H    0.101569
    73  H    0.101372
    74  H    0.106846
 Sum of ESP charges =   0.00000

 Normal termination of Gaussian 09 at Tue Mar 21 12:23:59 2017.
