 Gaussian 09, Revision D.01,
 Gaussian 09:  EM64L-G09RevD.01 24-Apr-2013

 ----------------------------------------------------------------------
 #P HF/6-31G* SCF(Conver=6) NoSymm Test Pop=mk IOp(6/33=2) GFInput GFPr
 int
 ----------------------------------------------------------------------

 ----------------------------------------------
 MEP - Input generated by R.E.D.-III.x MOLECULE
 ----------------------------------------------
 Symbolic Z-matrix:
 Charge =  0 Multiplicity = 1

                          Input orientation:
 ---------------------------------------------------------------------
 Center     Atomic      Atomic             Coordinates (Angstroms)
 Number     Number       Type             X           Y           Z
 ---------------------------------------------------------------------
      1          8           0        0.424509   -3.395922    7.248131
      2          1           0        0.261193   -4.336904    7.100394
      3          6           0        1.507182    1.501681    0.000000
      4          6           0        1.103869    0.000000    0.000000
      5          1           0        0.000000    0.000000    0.000000
      6          6           0        1.517111   -0.794776    1.245899
      7          1           0        2.614023   -0.812485    1.316191
      8          6           0        0.936785   -0.120720    2.516369
      9          1           0       -0.156302   -0.245574    2.442389
     10          6           0        0.950934    1.932992   -1.402395
     11          1           0       -0.144109    1.984309   -1.291794
     12          6           0        0.829421    2.131829    1.234900
     13          1           0       -0.260755    2.088890    1.096762
     14          1           0        1.086445    3.190041    1.344837
     15          6           0        1.359080   -0.852836    3.838480
     16          6           0        1.535466   -0.510668   -1.382288
     17          1           0        0.973746   -1.396241   -1.695845
     18          1           0        2.595177   -0.794676   -1.376932
     19          6           0        1.211750    1.400593    2.538468
     20          1           0        2.272239    1.583564    2.741907
     21          1           0        0.663277    1.862706    3.367090
     22          6           0        1.285888    0.704655   -2.316776
     23          1           0        2.172032    0.914676   -2.927561
     24          1           0        0.469717    0.504281   -3.017265
     25          6           0        1.028126   -2.249514    1.156653
     26          1           0        1.634519   -2.807548    0.430830
     27          1           0        0.001888   -2.267954    0.753298
     28          6           0        1.398024    3.279837   -2.029769
     29          1           0        2.482373    3.220333   -2.201476
     30          6           0        3.039027    1.703489    0.053561
     31          1           0        3.286656    2.768971    0.104421
     32          1           0        3.491095    1.225678    0.926205
     33          1           0        3.537411    1.296216   -0.831445
     34          6           0        1.212311   -2.371921    3.672126
     35          6           0        0.405601   -0.395914    4.986366
     36          1           0       -0.627679   -0.454130    4.616721
     37          1           0        0.593387    0.658072    5.218408
     38          6           0        1.050496   -2.962518    2.478889
     39          1           0        0.927292   -4.045677    2.446416
     40          6           0        2.827604   -0.532951    4.226578
     41          1           0        2.942382    0.511787    4.532218
     42          1           0        3.165350   -1.150576    5.062477
     43          1           0        3.507499   -0.722690    3.390246
     44          6           0        1.257042   -3.201875    4.941714
     45          1           0        1.049953   -4.252268    4.699524
     46          1           0        2.259523   -3.172970    5.391703
     47          6           0        0.508421   -1.217919    6.279387
     48          1           0        1.495664   -1.104343    6.744356
     49          1           0       -0.225456   -0.859626    7.010225
     50          6           0        0.709732    3.469437   -3.406107
     51          1           0        0.883346    2.579198   -4.019785
     52          1           0       -0.377478    3.510726   -3.241688
     53          6           0        0.271939   -2.697518    6.006199
     54          1           0       -0.757090   -2.832294    5.633772
     55          6           0        1.128512    4.492413   -1.122459
     56          1           0        0.065112    4.558385   -0.859455
     57          1           0        1.404701    5.428230   -1.617429
     58          1           0        1.699187    4.445347   -0.192659
     59          6           0        1.117097    4.711330   -4.224391
     60          1           0        0.525207    4.712091   -5.148633
     61          1           0        0.818463    5.622880   -3.692508
     62          6           0        2.612320    4.829542   -4.576092
     63          1           0        3.194910    4.931889   -3.650443
     64          1           0        2.763022    5.769545   -5.127482
     65          6           0        3.220311    3.680932   -5.408797
     66          1           0        3.080933    2.741762   -4.854128
     67          6           0        4.733060    3.893126   -5.580906
     68          1           0        5.239193    3.968404   -4.611523
     69          1           0        5.191141    3.065988   -6.135228
     70          1           0        4.937369    4.818115   -6.135374
     71          6           0        2.539510    3.523139   -6.777803
     72          1           0        1.474138    3.288753   -6.685345
     73          1           0        3.005003    2.716496   -7.355528
     74          1           0        2.628484    4.446382   -7.365157
 ---------------------------------------------------------------------

 SCF Done:  E(RHF) =  -1124.07752137     A.U. after    9 cycles

 Alpha  occ. eigenvalues --  -20.55359 -11.27437 -11.23901 -11.22708 -11.22694
 Alpha  occ. eigenvalues --  -11.22474 -11.22332 -11.22317 -11.22143 -11.22086
 Alpha  occ. eigenvalues --  -11.22058 -11.22001 -11.21931 -11.21922 -11.21574
 Alpha  occ. eigenvalues --  -11.21560 -11.21482 -11.21478 -11.21461 -11.21399
 Alpha  occ. eigenvalues --  -11.21385 -11.21366 -11.21336 -11.21181 -11.21086
 Alpha  occ. eigenvalues --  -11.21064 -11.20957 -11.20837  -1.34662  -1.15871
 Alpha  occ. eigenvalues --   -1.13452  -1.09742  -1.07946  -1.06055  -1.05513
 Alpha  occ. eigenvalues --   -1.02669  -1.01330  -0.99447  -0.97750  -0.95791
 Alpha  occ. eigenvalues --   -0.92798  -0.92450  -0.91980  -0.91210  -0.90658
 Alpha  occ. eigenvalues --   -0.85970  -0.84175  -0.82341  -0.81751  -0.78756
 Alpha  occ. eigenvalues --   -0.76669  -0.76387  -0.74757  -0.73088  -0.71871
 Alpha  occ. eigenvalues --   -0.68983  -0.66833  -0.65069  -0.64337  -0.64009
 Alpha  occ. eigenvalues --   -0.63250  -0.63240  -0.61636  -0.60758  -0.60487
 Alpha  occ. eigenvalues --   -0.59110  -0.58834  -0.58621  -0.58071  -0.57433
 Alpha  occ. eigenvalues --   -0.56827  -0.56079  -0.55660  -0.55403  -0.54838
 Alpha  occ. eigenvalues --   -0.54443  -0.53681  -0.53321  -0.53116  -0.52715
 Alpha  occ. eigenvalues --   -0.52392  -0.52046  -0.51846  -0.51243  -0.50987
 Alpha  occ. eigenvalues --   -0.50168  -0.49742  -0.48808  -0.48336  -0.47781
 Alpha  occ. eigenvalues --   -0.47510  -0.47009  -0.46841  -0.46305  -0.45535
 Alpha  occ. eigenvalues --   -0.45306  -0.44495  -0.44228  -0.44168  -0.43621
 Alpha  occ. eigenvalues --   -0.43280  -0.43111  -0.42909  -0.42493  -0.41588
 Alpha  occ. eigenvalues --   -0.39801  -0.38478  -0.32789
 Alpha virt. eigenvalues --    0.18174   0.20321   0.21993   0.22170   0.22644
 Alpha virt. eigenvalues --    0.23031   0.24103   0.24428   0.24870   0.25789
 Alpha virt. eigenvalues --    0.26174   0.26519   0.26935   0.27500   0.27839

 Mulliken charges:
               1
     1  O   -0.765587
     2  H    0.433039
     3  C   -0.028659
     4  C   -0.158544
     5  H    0.151204
     6  C   -0.153530
     7  H    0.163571
     8  C   -0.154858
     9  H    0.155058
    10  C   -0.133864
    11  H    0.152574
    12  C   -0.298500
    13  H    0.151395
    14  H    0.163665
    15  C   -0.038295
    16  C   -0.316223
    17  H    0.165649
    18  H    0.158355
    19  C   -0.327635
    20  H    0.163808
    21  H    0.165997
    22  C   -0.339199
    23  H    0.162026
    24  H    0.167839
    25  C   -0.324563
    26  H    0.170183
    27  H    0.161280
    28  C   -0.154432
    29  H    0.156693
    30  C   -0.488964
    31  H    0.162453
    32  H    0.164898
    33  H    0.163636
    34  C    0.063472
    35  C   -0.326291
    36  H    0.160363
    37  H    0.169517
    38  C   -0.235026
    39  H    0.171966
    40  C   -0.480240
    41  H    0.162481
    42  H    0.168568
    43  H    0.165267
    44  C   -0.370681
    45  H    0.159896
    46  H    0.179319
    47  C   -0.327107
    48  H    0.171495
    49  H    0.178756
    50  C   -0.313709
    51  H    0.167844
    52  H    0.150795
    53  C    0.194445
    54  H    0.144551
    55  C   -0.485504
    56  H    0.153043
    57  H    0.164316
    58  H    0.162604
    59  C   -0.317665
    60  H    0.159352
    61  H    0.159244
    62  C   -0.302869
    63  H    0.155382
    64  H    0.151318
    65  C   -0.154478
    66  H    0.156668
    67  C   -0.471540
    68  H    0.157049
    69  H    0.158005
    70  H    0.152904
    71  C   -0.476768
    72  H    0.162114
    73  H    0.158258
    74  H    0.152413
 Sum of Mulliken charges =   0.00000

 Dipole moment (field-independent basis, Debye):
    X=             -0.3596    Y=             -0.4468    Z=             -1.6023  Tot=              1.7019
 Quadrupole moment (field-independent basis, Debye-Ang):
   XX=           -181.7885   YY=           -173.8541   ZZ=           -202.9441
   XY=              1.4977   XZ=             -2.3493   YZ=              1.7678

 ESP charges:
               1
     1  O   -0.743906
     2  H    0.432213
     3  C    0.573997
     4  C    0.092491
     5  H   -0.008844
     6  C   -0.039870
     7  H    0.036523
     8  C   -0.012492
     9  H    0.008551
    10  C   -0.261735
    11  H    0.006858
    12  C   -0.179222
    13  H    0.007383
    14  H    0.040349
    15  C    0.433137
    16  C   -0.224893
    17  H    0.051202
    18  H    0.044076
    19  C   -0.102873
    20  H    0.030268
    21  H    0.037758
    22  C   -0.041250
    23  H    0.028432
    24  H    0.039612
    25  C   -0.081309
    26  H    0.060456
    27  H    0.046200
    28  C    0.479490
    29  H   -0.071088
    30  C   -0.553349
    31  H    0.106098
    32  H    0.111740
    33  H    0.115816
    34  C   -0.108835
    35  C   -0.334961
    36  H    0.072515
    37  H    0.087631
    38  C   -0.241873
    39  H    0.140466
    40  C   -0.473560
    41  H    0.100169
    42  H    0.128287
    43  H    0.106190
    44  C   -0.297961
    45  H    0.086911
    46  H    0.110580
    47  C   -0.025694
    48  H    0.056487
    49  H    0.048797
    50  C   -0.060904
    51  H   -0.017524
    52  H    0.009680
    53  C    0.397539
    54  H   -0.011646
    55  C   -0.518158
    56  H    0.092057
    57  H    0.123861
    58  H    0.101603
    59  C   -0.108507
    60  H    0.034259
    61  H    0.034759
    62  C   -0.136773
    63  H    0.011919
    64  H    0.029153
    65  C    0.526743
    66  H   -0.078145
    67  C   -0.505107
    68  H    0.100279
    69  H    0.114673
    70  H    0.107372
    71  C   -0.470463
    72  H    0.107755
    73  H    0.096072
    74  H    0.102535
 Sum of ESP charges =   0.00000

 Normal termination of Gaussian 09 at Tue Mar 21 13:11:23 2017.
