 Gaussian 09, Revision D.01,
 Gaussian 09:  EM64L-G09RevD.01 24-Apr-2013

 ----------------------------------------------------------------------
 #P HF/6-31G* SCF(Conver=6) NoSymm Test Pop=mk IOp(6/33=2) GFInput GFPr
 int
 ----------------------------------------------------------------------

 ----------------------------------------------
 MEP - Input generated by R.E.D.-III.x MOLECULE
 ----------------------------------------------
 Symbolic Z-matrix:
 Charge =  0 Multiplicity = 1

                          Input orientation:
 ---------------------------------------------------------------------
 Center     Atomic      Atomic             Coordinates (Angstroms)
 Number     Number       Type             X           Y           Z
 ---------------------------------------------------------------------
      1          8           0        4.199941    6.562226    4.119453
      2          1           0        4.981060    6.910809    3.669686
      3          6           0        0.000000    0.000000    0.000000
      4          6           0        1.345492    0.619337   -0.472152
      5          1           0        2.127877    0.000000    0.000000
      6          6           0        1.612784    2.054720    0.000000
      7          1           0        0.849917    2.722803   -0.424383
      8          6           0        1.543641    2.122511    1.547989
      9          1           0        2.406668    1.537510    1.907014
     10          6           0        0.087949   -1.406035   -0.690689
     11          1           0        0.822909   -1.985511   -0.109357
     12          6           0        0.033335    0.013875    1.542588
     13          1           0        0.837071   -0.655693    1.881895
     14          1           0       -0.895514   -0.373420    1.973007
     15          6           0        1.756221    3.575799    2.100497
     16          6           0        1.398585    0.310858   -1.975457
     17          1           0        2.420647    0.308397   -2.367202
     18          1           0        0.843748    1.066205   -2.545718
     19          6           0        0.275520    1.431601    2.100558
     20          1           0       -0.605884    2.045220    1.885939
     21          1           0        0.337178    1.367002    3.192807
     22          6           0        0.723503   -1.083585   -2.087385
     23          1           0       -0.047393   -1.083704   -2.867299
     24          1           0        1.450379   -1.849903   -2.372700
     25          6           0        2.987388    2.545361   -0.482785
     26          1           0        2.955548    2.756911   -1.559900
     27          1           0        3.727740    1.736217   -0.367080
     28          6           0       -1.184515   -2.285413   -0.803709
     29          1           0       -1.905920   -1.749652   -1.439487
     30          6           0       -1.226292    0.780061   -0.528012
     31          1           0       -2.154827    0.354824   -0.133109
     32          1           0       -1.205076    1.833145   -0.237210
     33          1           0       -1.293515    0.748323   -1.619752
     34          6           0        2.933759    4.248456    1.380828
     35          6           0        2.103316    3.484976    3.619317
     36          1           0        2.877489    2.715736    3.748319
     37          1           0        1.224823    3.137560    4.173842
     38          6           0        3.470450    3.764113    0.251129
     39          1           0        4.323059    4.285484   -0.185575
     40          6           0        0.488641    4.451449    1.910600
     41          1           0       -0.331337    4.112224    2.551365
     42          1           0        0.681552    5.497058    2.163057
     43          1           0        0.144637    4.428765    0.871913
     44          6           0        3.483095    5.513890    2.012939
     45          1           0        4.372756    5.842406    1.460261
     46          1           0        2.751345    6.331602    1.948718
     47          6           0        2.605499    4.792883    4.248051
     48          1           0        1.824556    5.563453    4.238134
     49          1           0        2.868526    4.626436    5.298852
     50          6           0       -0.857415   -3.625414   -1.512264
     51          1           0       -0.189750   -3.434293   -2.357807
     52          1           0       -0.290603   -4.262551   -0.815463
     53          6           0        3.819431    5.327568    3.499553
     54          1           0        4.644282    4.601679    3.591399
     55          6           0       -1.854735   -2.556238    0.555377
     56          1           0       -1.135641   -2.980700    1.267064
     57          1           0       -2.680079   -3.267810    0.456470
     58          1           0       -2.269100   -1.649316    1.001394
     59          6           0       -2.082127   -4.399212   -2.027729
     60          1           0       -2.794582   -4.559357   -1.209568
     61          1           0       -2.611156   -3.781234   -2.766020
     62          6           0       -1.755943   -5.777666   -2.632626
     63          1           0       -2.701018   -6.282144   -2.883215
     64          1           0       -1.281252   -6.394659   -1.855914
     65          6           0       -0.855836   -5.797215   -3.886598
     66          1           0        0.098682   -5.313446   -3.634623
     67          6           0       -1.476078   -5.031614   -5.066086
     68          1           0       -1.636663   -3.973809   -4.833850
     69          1           0       -0.827783   -5.080109   -5.948420
     70          1           0       -2.446762   -5.463374   -5.342974
     71          6           0       -0.542796   -7.247001   -4.290425
     72          1           0       -0.064851   -7.795776   -3.470747
     73          1           0        0.129307   -7.283400   -5.155419
     74          1           0       -1.460938   -7.784769   -4.560097
 ---------------------------------------------------------------------

 SCF Done:  E(RHF) =  -1124.07866798     A.U. after    9 cycles

 Alpha  occ. eigenvalues --  -20.55358 -11.27435 -11.23901 -11.22709 -11.22686
 Alpha  occ. eigenvalues --  -11.22416 -11.22380 -11.22318 -11.22142 -11.22091
 Alpha  occ. eigenvalues --  -11.22056 -11.22000 -11.21929 -11.21922 -11.21573
 Alpha  occ. eigenvalues --  -11.21561 -11.21503 -11.21489 -11.21453 -11.21398
 Alpha  occ. eigenvalues --  -11.21354 -11.21340 -11.21325 -11.21179 -11.21051
 Alpha  occ. eigenvalues --  -11.21039 -11.20933 -11.20847  -1.34661  -1.15868
 Alpha  occ. eigenvalues --   -1.13447  -1.09664  -1.08004  -1.06073  -1.05569
 Alpha  occ. eigenvalues --   -1.02667  -1.01351  -0.99586  -0.97747  -0.95808
 Alpha  occ. eigenvalues --   -0.92733  -0.92414  -0.91962  -0.91002  -0.90667
 Alpha  occ. eigenvalues --   -0.85966  -0.83687  -0.82249  -0.81740  -0.79074
 Alpha  occ. eigenvalues --   -0.76663  -0.76348  -0.74752  -0.73868  -0.71764
 Alpha  occ. eigenvalues --   -0.68982  -0.66836  -0.64901  -0.64329  -0.63839
 Alpha  occ. eigenvalues --   -0.63315  -0.63211  -0.61677  -0.60797  -0.60519
 Alpha  occ. eigenvalues --   -0.59160  -0.58930  -0.58319  -0.58024  -0.57491
 Alpha  occ. eigenvalues --   -0.56565  -0.56141  -0.55766  -0.55339  -0.54601
 Alpha  occ. eigenvalues --   -0.54262  -0.53857  -0.53527  -0.53088  -0.52954
 Alpha  occ. eigenvalues --   -0.52341  -0.52321  -0.51534  -0.51257  -0.50844
 Alpha  occ. eigenvalues --   -0.50178  -0.49550  -0.48796  -0.48384  -0.47843
 Alpha  occ. eigenvalues --   -0.47278  -0.46919  -0.46684  -0.46305  -0.45506
 Alpha  occ. eigenvalues --   -0.45201  -0.44688  -0.44391  -0.44007  -0.43879
 Alpha  occ. eigenvalues --   -0.43443  -0.43219  -0.42927  -0.42421  -0.41606
 Alpha  occ. eigenvalues --   -0.39793  -0.38457  -0.32788
 Alpha virt. eigenvalues --    0.18176   0.20975   0.22047   0.22222   0.22596
 Alpha virt. eigenvalues --    0.23485   0.24179   0.24589   0.24724   0.25823
 Alpha virt. eigenvalues --    0.25997   0.26655   0.27099   0.27409   0.27953

 Mulliken charges:
               1
     1  O   -0.765596
     2  H    0.433033
     3  C   -0.029089
     4  C   -0.158054
     5  H    0.151024
     6  C   -0.153873
     7  H    0.163618
     8  C   -0.154748
     9  H    0.155047
    10  C   -0.135058
    11  H    0.152611
    12  C   -0.298321
    13  H    0.151096
    14  H    0.164069
    15  C   -0.038384
    16  C   -0.316068
    17  H    0.165518
    18  H    0.158438
    19  C   -0.327808
    20  H    0.163918
    21  H    0.165977
    22  C   -0.336274
    23  H    0.159798
    24  H    0.166774
    25  C   -0.324451
    26  H    0.170162
    27  H    0.161203
    28  C   -0.147531
    29  H    0.152862
    30  C   -0.489317
    31  H    0.162982
    32  H    0.164876
    33  H    0.163773
    34  C    0.063512
    35  C   -0.326309
    36  H    0.160349
    37  H    0.169556
    38  C   -0.235036
    39  H    0.171962
    40  C   -0.480233
    41  H    0.162496
    42  H    0.168557
    43  H    0.165287
    44  C   -0.370655
    45  H    0.159891
    46  H    0.179324
    47  C   -0.327104
    48  H    0.171487
    49  H    0.178759
    50  C   -0.315009
    51  H    0.171104
    52  H    0.147434
    53  C    0.194440
    54  H    0.144543
    55  C   -0.485241
    56  H    0.153809
    57  H    0.162827
    58  H    0.162472
    59  C   -0.313064
    60  H    0.158588
    61  H    0.153793
    62  C   -0.297049
    63  H    0.150890
    64  H    0.151956
    65  C   -0.152977
    66  H    0.155944
    67  C   -0.476279
    68  H    0.160796
    69  H    0.158235
    70  H    0.152302
    71  C   -0.471634
    72  H    0.157724
    73  H    0.157972
    74  H    0.152371
 Sum of Mulliken charges =   0.00000

 Dipole moment (field-independent basis, Debye):
    X=              0.5540    Y=             -0.8810    Z=             -1.3014  Tot=              1.6664
 Quadrupole moment (field-independent basis, Debye-Ang):
   XX=           -173.2207   YY=           -191.9096   ZZ=           -191.4355
   XY=              1.4287   XZ=             -4.4780   YZ=            -12.5815

 ESP charges:
               1
     1  O   -0.752462
     2  H    0.431218
     3  C    0.603163
     4  C   -0.076882
     5  H    0.021130
     6  C    0.065516
     7  H    0.013757
     8  C   -0.020557
     9  H   -0.006037
    10  C   -0.045247
    11  H   -0.030954
    12  C   -0.226941
    13  H    0.014646
    14  H    0.040508
    15  C    0.490906
    16  C   -0.194751
    17  H    0.054990
    18  H    0.048842
    19  C   -0.044149
    20  H    0.017254
    21  H    0.028311
    22  C   -0.119997
    23  H    0.037877
    24  H    0.059863
    25  C   -0.064176
    26  H    0.050238
    27  H    0.040976
    28  C    0.205838
    29  H   -0.028912
    30  C   -0.597496
    31  H    0.119154
    32  H    0.122336
    33  H    0.131911
    34  C   -0.146643
    35  C   -0.319470
    36  H    0.062485
    37  H    0.072380
    38  C   -0.252658
    39  H    0.143746
    40  C   -0.488187
    41  H    0.094386
    42  H    0.131342
    43  H    0.103673
    44  C   -0.269152
    45  H    0.080738
    46  H    0.097975
    47  C   -0.018714
    48  H    0.050633
    49  H    0.045020
    50  C    0.032029
    51  H   -0.042444
    52  H    0.001415
    53  C    0.420731
    54  H   -0.023822
    55  C   -0.462869
    56  H    0.094912
    57  H    0.106203
    58  H    0.103578
    59  C    0.019031
    60  H    0.016953
    61  H   -0.007770
    62  C   -0.263569
    63  H    0.055325
    64  H    0.052012
    65  C    0.509484
    66  H   -0.058679
    67  C   -0.411475
    68  H    0.090368
    69  H    0.081558
    70  H    0.093939
    71  C   -0.535086
    72  H    0.108161
    73  H    0.122756
    74  H    0.119831
 Sum of ESP charges =   0.00000

 Normal termination of Gaussian 09 at Tue Mar 21 12:01:28 2017.
