 Gaussian 09, Revision D.01,
 Gaussian 09:  EM64L-G09RevD.01 24-Apr-2013

 ----------------------------------------------------------------------
 #P HF/6-31G* SCF(Conver=6) NoSymm Test Pop=mk IOp(6/33=2) GFInput GFPr
 int
 ----------------------------------------------------------------------

 ----------------------------------------------
 MEP - Input generated by R.E.D.-III.x MOLECULE
 ----------------------------------------------
 Symbolic Z-matrix:
 Charge =  0 Multiplicity = 1

                          Input orientation:
 ---------------------------------------------------------------------
 Center     Atomic      Atomic             Coordinates (Angstroms)
 Number     Number       Type             X           Y           Z
 ---------------------------------------------------------------------
      1          8           0        0.405329   -3.286068    7.296297
      2          1           0        0.244046   -4.229500    7.162623
      3          6           0        1.509566    1.496229    0.000000
      4          6           0        1.103265    0.000000    0.000000
      5          1           0        0.000000    0.000000    0.000000
      6          6           0        1.510224   -0.778293    1.257018
      7          1           0        2.606450   -0.798886    1.334070
      8          6           0        0.921646   -0.081554    2.515259
      9          1           0       -0.170093   -0.215635    2.437861
     10          6           0        0.951111    1.913200   -1.396684
     11          1           0       -0.139090    1.836483   -1.275575
     12          6           0        0.817241    2.155961    1.205115
     13          1           0       -0.271259    2.112971    1.054203
     14          1           0        1.080859    3.219272    1.283823
     15          6           0        1.342159   -0.793500    3.849566
     16          6           0        1.536231   -0.509985   -1.388736
     17          1           0        0.935563   -1.362429   -1.721312
     18          1           0        2.579771   -0.848154   -1.371434
     19          6           0        1.180951    1.446220    2.526335
     20          1           0        2.234033    1.643746    2.751022
     21          1           0        0.609305    1.907955    3.339104
     22          6           0        1.370551    0.729715   -2.323371
     23          1           0        2.311010    0.940691   -2.839414
     24          1           0        0.622443    0.554493   -3.103555
     25          6           0        1.016562   -2.232225    1.189756
     26          1           0        1.620882   -2.802004    0.471234
     27          1           0       -0.010053   -2.253234    0.787489
     28          6           0        1.194168    3.364829   -1.914967
     29          1           0        1.240772    4.006353   -1.023155
     30          6           0        3.038919    1.692899    0.089542
     31          1           0        3.284486    2.759248    0.124602
     32          1           0        3.461707    1.237665    0.988374
     33          1           0        3.563511    1.259505   -0.766624
     34          6           0        1.197839   -2.315523    3.706418
     35          6           0        0.386357   -0.320664    4.989260
     36          1           0       -0.646352   -0.385107    4.618981
     37          1           0        0.573045    0.736611    5.206442
     38          6           0        1.038184   -2.925221    2.522508
     39          1           0        0.916379   -4.008893    2.507048
     40          6           0        2.809614   -0.466211    4.235877
     41          1           0        2.922986    0.583177    4.525684
     42          1           0        3.145838   -1.070382    5.082114
     43          1           0        3.491771   -0.668425    3.404364
     44          6           0        1.242099   -3.125683    4.988801
     45          1           0        1.037524   -4.180044    4.762316
     46          1           0        2.243695   -3.087922    5.440146
     47          6           0        0.488052   -1.123146    6.294571
     48          1           0        1.474470   -1.001337    6.759172
     49          1           0       -0.247357   -0.754706    7.018785
     50          6           0        2.502015    3.571568   -2.716076
     51          1           0        3.348506    3.165699   -2.153010
     52          1           0        2.445293    2.978768   -3.638510
     53          6           0        0.254064   -2.606954    6.043570
     54          1           0       -0.774020   -2.748975    5.671253
     55          6           0       -0.026224    3.828634   -2.737144
     56          1           0       -0.139482    3.224547   -3.646422
     57          1           0        0.056651    4.875368   -3.044590
     58          1           0       -0.949912    3.731245   -2.156284
     59          6           0        2.825806    5.024052   -3.129865
     60          1           0        3.746536    5.003254   -3.726821
     61          1           0        2.049988    5.389073   -3.813845
     62          6           0        2.980509    6.052646   -1.994021
     63          1           0        2.036269    6.124714   -1.437453
     64          1           0        3.132694    7.043100   -2.448263
     65          6           0        4.123844    5.808955   -0.986485
     66          1           0        3.976301    4.820184   -0.529614
     67          6           0        4.067431    6.850636    0.142580
     68          1           0        3.099349    6.831822    0.656372
     69          1           0        4.848011    6.670799    0.890628
     70          1           0        4.213814    7.863836   -0.253356
     71          6           0        5.508190    5.814123   -1.654464
     72          1           0        5.607073    5.026503   -2.408293
     73          1           0        6.300598    5.661090   -0.913009
     74          1           0        5.697567    6.775694   -2.149232
 ---------------------------------------------------------------------

 SCF Done:  E(RHF) =  -1124.07347664     A.U. after    9 cycles

 Alpha  occ. eigenvalues --  -20.55369 -11.27446 -11.23941 -11.22724 -11.22475
 Alpha  occ. eigenvalues --  -11.22442 -11.22424 -11.22415 -11.22153 -11.22080
 Alpha  occ. eigenvalues --  -11.22009 -11.21951 -11.21930 -11.21898 -11.21567
 Alpha  occ. eigenvalues --  -11.21565 -11.21537 -11.21495 -11.21482 -11.21465
 Alpha  occ. eigenvalues --  -11.21412 -11.21385 -11.21347 -11.21201 -11.21101
 Alpha  occ. eigenvalues --  -11.21067 -11.20951 -11.20910  -1.34672  -1.15915
 Alpha  occ. eigenvalues --   -1.13471  -1.09644  -1.07910  -1.06087  -1.05456
 Alpha  occ. eigenvalues --   -1.02645  -1.01349  -0.99529  -0.97757  -0.95722
 Alpha  occ. eigenvalues --   -0.92534  -0.92380  -0.91872  -0.91522  -0.90759
 Alpha  occ. eigenvalues --   -0.85982  -0.84132  -0.82503  -0.81908  -0.79152
 Alpha  occ. eigenvalues --   -0.76671  -0.76496  -0.74957  -0.72456  -0.71247
 Alpha  occ. eigenvalues --   -0.68993  -0.66869  -0.64912  -0.64432  -0.63837
 Alpha  occ. eigenvalues --   -0.63312  -0.62913  -0.62028  -0.61025  -0.60613
 Alpha  occ. eigenvalues --   -0.59204  -0.58797  -0.58589  -0.58090  -0.57979
 Alpha  occ. eigenvalues --   -0.56639  -0.56314  -0.55454  -0.55255  -0.54879
 Alpha  occ. eigenvalues --   -0.54016  -0.53412  -0.53332  -0.52975  -0.52829
 Alpha  occ. eigenvalues --   -0.52455  -0.52090  -0.51849  -0.51316  -0.51119
 Alpha  occ. eigenvalues --   -0.50666  -0.50080  -0.48540  -0.48384  -0.48019
 Alpha  occ. eigenvalues --   -0.47451  -0.47163  -0.46602  -0.46239  -0.45418
 Alpha  occ. eigenvalues --   -0.45121  -0.44721  -0.44584  -0.43944  -0.43604
 Alpha  occ. eigenvalues --   -0.43315  -0.42962  -0.42610  -0.42153  -0.41555
 Alpha  occ. eigenvalues --   -0.39823  -0.38647  -0.32800
 Alpha virt. eigenvalues --    0.18145   0.20198   0.22105   0.22259   0.22626
 Alpha virt. eigenvalues --    0.23575   0.23610   0.24244   0.24677   0.25721
 Alpha virt. eigenvalues --    0.26005   0.26636   0.27078   0.27171   0.27976

 Mulliken charges:
               1
     1  O   -0.765584
     2  H    0.433064
     3  C   -0.030503
     4  C   -0.158191
     5  H    0.151271
     6  C   -0.154065
     7  H    0.164053
     8  C   -0.155144
     9  H    0.155281
    10  C   -0.145560
    11  H    0.156151
    12  C   -0.296557
    13  H    0.151443
    14  H    0.157244
    15  C   -0.038414
    16  C   -0.317712
    17  H    0.165144
    18  H    0.158570
    19  C   -0.328198
    20  H    0.164969
    21  H    0.166661
    22  C   -0.330174
    23  H    0.166934
    24  H    0.164250
    25  C   -0.323909
    26  H    0.170255
    27  H    0.161200
    28  C   -0.149569
    29  H    0.161113
    30  C   -0.496433
    31  H    0.168473
    32  H    0.165713
    33  H    0.164742
    34  C    0.063374
    35  C   -0.326473
    36  H    0.160366
    37  H    0.169638
    38  C   -0.235080
    39  H    0.172104
    40  C   -0.480298
    41  H    0.162334
    42  H    0.168705
    43  H    0.165492
    44  C   -0.370784
    45  H    0.159979
    46  H    0.179309
    47  C   -0.327135
    48  H    0.171514
    49  H    0.178813
    50  C   -0.317877
    51  H    0.164492
    52  H    0.155979
    53  C    0.194473
    54  H    0.144586
    55  C   -0.484772
    56  H    0.154139
    57  H    0.163561
    58  H    0.158197
    59  C   -0.317228
    60  H    0.158921
    61  H    0.159401
    62  C   -0.303165
    63  H    0.155154
    64  H    0.151239
    65  C   -0.160236
    66  H    0.161211
    67  C   -0.471140
    68  H    0.156556
    69  H    0.158227
    70  H    0.153170
    71  C   -0.476020
    72  H    0.161863
    73  H    0.158441
    74  H    0.152449
 Sum of Mulliken charges =   0.00000

 Dipole moment (field-independent basis, Debye):
    X=             -0.3145    Y=             -0.4938    Z=             -1.5906  Tot=              1.6950
 Quadrupole moment (field-independent basis, Debye-Ang):
   XX=           -181.6431   YY=           -174.4351   ZZ=           -202.3316
   XY=              1.3774   XZ=             -2.8720   YZ=              0.9021

 ESP charges:
               1
     1  O   -0.748111
     2  H    0.433917
     3  C    0.323039
     4  C    0.143982
     5  H   -0.008505
     6  C   -0.056817
     7  H    0.054064
     8  C    0.013509
     9  H    0.008808
    10  C   -0.191164
    11  H    0.056100
    12  C   -0.203855
    13  H    0.024998
    14  H    0.049978
    15  C    0.370161
    16  C   -0.232439
    17  H    0.048941
    18  H    0.055292
    19  C   -0.031192
    20  H    0.027568
    21  H    0.021358
    22  C    0.004267
    23  H    0.010906
    24  H    0.030003
    25  C   -0.083657
    26  H    0.059093
    27  H    0.047862
    28  C    0.259330
    29  H   -0.001528
    30  C   -0.633650
    31  H    0.182032
    32  H    0.133939
    33  H    0.157480
    34  C   -0.076310
    35  C   -0.328288
    36  H    0.070785
    37  H    0.086829
    38  C   -0.245484
    39  H    0.140743
    40  C   -0.460184
    41  H    0.098125
    42  H    0.127342
    43  H    0.104000
    44  C   -0.321540
    45  H    0.090063
    46  H    0.115108
    47  C   -0.005899
    48  H    0.053476
    49  H    0.041053
    50  C   -0.077284
    51  H    0.025166
    52  H    0.021596
    53  C    0.408671
    54  H   -0.015614
    55  C   -0.510859
    56  H    0.119168
    57  H    0.133534
    58  H    0.107749
    59  C   -0.049733
    60  H    0.022673
    61  H    0.032691
    62  C   -0.241558
    63  H    0.048094
    64  H    0.046883
    65  C    0.592293
    66  H   -0.130277
    67  C   -0.487817
    68  H    0.094875
    69  H    0.108905
    70  H    0.097812
    71  C   -0.427418
    72  H    0.092471
    73  H    0.083710
    74  H    0.088742
 Sum of ESP charges =   0.00000

 Normal termination of Gaussian 09 at Tue Mar 21 12:35:35 2017.
