 Gaussian 09, Revision D.01,
 Gaussian 09:  EM64L-G09RevD.01 24-Apr-2013

 ----------------------------------------------------------------------
 #P HF/6-31G* SCF(Conver=6) NoSymm Test Pop=mk IOp(6/33=2) GFInput GFPr
 int
 ----------------------------------------------------------------------

 ----------------------------------------------
 MEP - Input generated by R.E.D.-III.x MOLECULE
 ----------------------------------------------
 Symbolic Z-matrix:
 Charge =  0 Multiplicity = 1

                          Input orientation:
 ---------------------------------------------------------------------
 Center     Atomic      Atomic             Coordinates (Angstroms)
 Number     Number       Type             X           Y           Z
 ---------------------------------------------------------------------
      1          6           0       -0.965187    2.003897    1.686730
      2          1           0       -0.980224    1.025030    2.181544
      3          6           0        0.386244    2.680865    1.965262
      4          1           0        0.539687    2.766771    3.045482
      5          1           0        0.332904    3.708207    1.571792
      6          6           0        1.547095    1.940444    1.326961
      7          6           0        1.424865    1.627695   -0.169689
      8          6           0        0.013161    1.013726   -0.422990
      9          1           0        0.000000    0.000000    0.000000
     10          1           0       -0.145578    0.902474   -1.501049
     11          6           0       -1.155472    1.806242    0.182849
     12          1           0       -1.244514    2.790652   -0.300053
     13          1           0       -2.099661    1.280873    0.000000
     14          6           0        2.610469    1.596825    2.070094
     15          1           0        2.621217    1.852535    3.128021
     16          6           0        3.816096    0.866738    1.552392
     17          1           0        4.730962    1.299139    1.976952
     18          6           0        3.901157    0.877235    0.015420
     19          1           0        4.208284    1.899850   -0.245484
     20          6           0        2.510963    0.582865   -0.608006
     21          1           0        2.193642   -0.381287   -0.184341
     22          6           0        2.593228    0.394566   -2.142012
     23          1           0        2.745940    1.362831   -2.629392
     24          1           0        1.633302    0.019109   -2.514958
     25          6           0        3.708738   -0.562472   -2.609952
     26          1           0        3.489555   -1.582438   -2.263348
     27          1           0        3.697280   -0.595590   -3.704146
     28          6           0        5.088302   -0.142164   -2.063279
     29          6           0        4.952365   -0.109315   -0.515380
     30          1           0        4.600835   -1.112017   -0.236007
     31          6           0        6.394477    0.000000    0.000000
     32          1           0        6.494723   -0.390621    1.016443
     33          1           0        6.725284    1.046282    0.023169
     34          6           0        7.215514   -0.818687   -1.034957
     35          1           0        8.058124   -0.229302   -1.415626
     36          1           0        7.648213   -1.716676   -0.583048
     37          6           0        6.244112   -1.193426   -2.202775
     38          1           0        5.788417   -2.165861   -1.965990
     39          6           0        5.523789    1.216758   -2.656725
     40          1           0        4.838709    2.027170   -2.394663
     41          1           0        6.519220    1.513018   -2.312208
     42          1           0        5.558690    1.167727   -3.750334
     43          6           0        6.978050   -1.342715   -3.558588
     44          1           0        7.437893   -0.370595   -3.789274
     45          6           0        6.047344   -1.697156   -4.733731
     46          1           0        5.423422   -2.570278   -4.512309
     47          1           0        6.634370   -1.927548   -5.630779
     48          1           0        5.377907   -0.871794   -4.989052
     49          6           0        1.562959    2.959924   -0.956808
     50          1           0        1.285405    2.832007   -2.007266
     51          1           0        0.917483    3.740488   -0.547187
     52          1           0        2.589074    3.338524   -0.917544
     53          8           0        3.794614   -0.529448    1.959265
     54          8           0        3.974242   -0.570544    3.402819
     55          1           0        3.084759   -0.833605    3.691853
     56          8           0       -2.048780    2.716034    2.289360
     57          1           0       -2.112537    3.589672    1.878442
     58          6           0        8.158691   -2.349391   -3.484002
     59          1           0        8.684402   -2.302629   -4.446787
     60          1           0        8.882193   -2.006831   -2.733173
     61          6           0        7.791725   -3.811464   -3.178851
     62          1           0        7.232327   -3.858552   -2.235995
     63          1           0        7.112265   -4.197655   -3.948414
     64          6           0        9.008051   -4.747528   -3.043568
     65          1           0        8.654059   -5.736543   -2.716494
     66          1           0        9.647896   -4.372157   -2.231769
     67          6           0        9.882448   -4.944252   -4.300479
     68          1           0       10.254300   -3.960519   -4.620738
     69          6           0       11.107016   -5.810049   -3.963054
     70          1           0       10.799714   -6.812782   -3.639014
     71          1           0       11.762747   -5.928940   -4.833223
     72          1           0       11.699414   -5.366527   -3.154500
     73          6           0        9.097123   -5.555757   -5.471649
     74          1           0        8.683652   -6.534242   -5.194152
     75          1           0        9.745857   -5.704878   -6.342358
     76          1           0        8.263677   -4.919990   -5.787449
 ---------------------------------------------------------------------

 SCF Done:  E(RHF) =  -1273.68281859     A.U. after    9 cycles

 Alpha  occ. eigenvalues --  -20.62354 -20.62027 -20.56069 -11.28471 -11.28239
 Alpha  occ. eigenvalues --  -11.24964 -11.24531 -11.23090 -11.22980 -11.22960
 Alpha  occ. eigenvalues --  -11.22924 -11.22677 -11.22650 -11.22409 -11.22265
 Alpha  occ. eigenvalues --  -11.22261 -11.22251 -11.21908 -11.21800 -11.21505
 Alpha  occ. eigenvalues --  -11.21369 -11.21309 -11.21288 -11.21225 -11.21139
 Alpha  occ. eigenvalues --  -11.21032 -11.20905 -11.20887 -11.20887 -11.20853
 Alpha  occ. eigenvalues --   -1.45658  -1.35447  -1.22100  -1.15609  -1.13947
 Alpha  occ. eigenvalues --   -1.09549  -1.07938  -1.05790  -1.05668  -1.03090
 Alpha  occ. eigenvalues --   -1.01508  -0.99423  -0.97954  -0.96373  -0.92945
 Alpha  occ. eigenvalues --   -0.92305  -0.92258  -0.90922  -0.90783  -0.86235
 Alpha  occ. eigenvalues --   -0.84061  -0.82889  -0.82690  -0.79304  -0.78276
 Alpha  occ. eigenvalues --   -0.77023  -0.75204  -0.72724  -0.71644  -0.70816
 Alpha  occ. eigenvalues --   -0.69136  -0.67111  -0.65715  -0.64510  -0.64424
 Alpha  occ. eigenvalues --   -0.63913  -0.63410  -0.62796  -0.62165  -0.61370
 Alpha  occ. eigenvalues --   -0.61017  -0.60059  -0.59275  -0.59069  -0.58198
 Alpha  occ. eigenvalues --   -0.57663  -0.57545  -0.57031  -0.56221  -0.55981
 Alpha  occ. eigenvalues --   -0.55705  -0.54778  -0.54270  -0.54075  -0.53733
 Alpha  occ. eigenvalues --   -0.53576  -0.53138  -0.52915  -0.52757  -0.51945
 Alpha  occ. eigenvalues --   -0.50566  -0.50483  -0.49758  -0.49665  -0.49442
 Alpha  occ. eigenvalues --   -0.49045  -0.48106  -0.47657  -0.47256  -0.47101
 Alpha  occ. eigenvalues --   -0.46525  -0.46082  -0.45385  -0.45170  -0.44648
 Alpha  occ. eigenvalues --   -0.44402  -0.44222  -0.43662  -0.43512  -0.42892
 Alpha  occ. eigenvalues --   -0.42709  -0.42039  -0.41729  -0.40221  -0.38973
 Alpha  occ. eigenvalues --   -0.34688
 Alpha virt. eigenvalues --    0.16029   0.20398   0.21249   0.21761   0.22258
 Alpha virt. eigenvalues --    0.23027   0.23068   0.23959   0.24264   0.24599
 Alpha virt. eigenvalues --    0.25378   0.26039   0.26582   0.26707   0.27375

 Mulliken charges:
               1
     1  C    0.194092
     2  H    0.172061
     3  C   -0.368730
     4  H    0.192273
     5  H    0.155618
     6  C    0.083436
     7  C   -0.044563
     8  C   -0.325431
     9  H    0.168077
    10  H    0.173717
    11  C   -0.341393
    12  H    0.145083
    13  H    0.184070
    14  C   -0.277045
    15  H    0.193405
    16  C    0.192096
    17  H    0.186749
    18  C   -0.209855
    19  H    0.171984
    20  C   -0.157630
    21  H    0.178050
    22  C   -0.329610
    23  H    0.164342
    24  H    0.165401
    25  C   -0.298191
    26  H    0.155195
    27  H    0.163941
    28  C   -0.028409
    29  C   -0.152600
    30  H    0.186672
    31  C   -0.325779
    32  H    0.189212
    33  H    0.151093
    34  C   -0.335304
    35  H    0.158604
    36  H    0.169685
    37  C   -0.143151
    38  H    0.159540
    39  C   -0.490784
    40  H    0.159712
    41  H    0.166131
    42  H    0.162776
    43  C   -0.146953
    44  H    0.156111
    45  C   -0.486871
    46  H    0.158051
    47  H    0.156885
    48  H    0.160953
    49  C   -0.482836
    50  H    0.168171
    51  H    0.162974
    52  H    0.169474
    53  O   -0.398426
    54  O   -0.464469
    55  H    0.459500
    56  O   -0.758794
    57  H    0.428760
    58  C   -0.314263
    59  H    0.156488
    60  H    0.160529
    61  C   -0.319841
    62  H    0.161407
    63  H    0.159383
    64  C   -0.297663
    65  H    0.150916
    66  H    0.151863
    67  C   -0.152225
    68  H    0.156180
    69  C   -0.471665
    70  H    0.152231
    71  H    0.157503
    72  H    0.157900
    73  C   -0.476681
    74  H    0.152017
    75  H    0.157754
    76  H    0.161098
 Sum of Mulliken charges =   0.00000

 Dipole moment (field-independent basis, Debye):
    X=             -0.7554    Y=              1.7493    Z=             -1.7917  Tot=              2.6155
 Quadrupole moment (field-independent basis, Debye-Ang):
   XX=           -206.0067   YY=           -185.6489   ZZ=           -195.1990
   XY=              6.9666   XZ=             -1.8883   YZ=             -2.7978

 ESP charges:
               1
     1  C    0.572942
     2  H    0.035440
     3  C   -0.530059
     4  H    0.157969
     5  H    0.137415
     6  C    0.210052
     7  C    0.231602
     8  C    0.015135
     9  H   -0.002815
    10  H    0.053761
    11  C   -0.370383
    12  H    0.087698
    13  H    0.093787
    14  C   -0.497922
    15  H    0.167797
    16  C    0.521994
    17  H    0.046922
    18  C   -0.493035
    19  H    0.135097
    20  C   -0.236687
    21  H    0.107870
    22  C    0.100985
    23  H    0.011675
    24  H   -0.001673
    25  C   -0.300784
    26  H    0.038292
    27  H    0.053450
    28  C    0.592334
    29  C    0.311413
    30  H   -0.026702
    31  C   -0.475021
    32  H    0.157730
    33  H    0.093269
    34  C   -0.064413
    35  H    0.033223
    36  H    0.043555
    37  C    0.150850
    38  H   -0.083128
    39  C   -0.663247
    40  H    0.149922
    41  H    0.132245
    42  H    0.136135
    43  C    0.064319
    44  H    0.002525
    45  C   -0.374116
    46  H    0.073455
    47  H    0.099494
    48  H    0.079890
    49  C   -0.429871
    50  H    0.103372
    51  H    0.107875
    52  H    0.120566
    53  O   -0.291693
    54  O   -0.470994
    55  H    0.444229
    56  O   -0.752121
    57  H    0.426671
    58  C   -0.159786
    59  H    0.062368
    60  H    0.013448
    61  C    0.055360
    62  H    0.028365
    63  H    0.021543
    64  C   -0.350230
    65  H    0.066954
    66  H    0.083673
    67  C    0.555133
    68  H   -0.070659
    69  C   -0.493623
    70  H    0.111220
    71  H    0.108913
    72  H    0.096085
    73  C   -0.477879
    74  H    0.108065
    75  H    0.096020
    76  H    0.106742
 Sum of ESP charges =   0.00000

 Normal termination of Gaussian 09 at Wed Apr 26 14:39:13 2017.
