 Gaussian 09, Revision D.01,
 Gaussian 09:  EM64L-G09RevD.01 24-Apr-2013

 ----------------------------------------------------------------------
 #P HF/6-31G* SCF(Conver=6) NoSymm Test Pop=mk IOp(6/33=2) GFInput GFPr
 int
 ----------------------------------------------------------------------

 ----------------------------------------------
 MEP - Input generated by R.E.D.-III.x MOLECULE
 ----------------------------------------------
 Symbolic Z-matrix:
 Charge =  0 Multiplicity = 1

                          Input orientation:
 ---------------------------------------------------------------------
 Center     Atomic      Atomic             Coordinates (Angstroms)
 Number     Number       Type             X           Y           Z
 ---------------------------------------------------------------------
      1          6           0       -0.962657    2.001150    1.691463
      2          1           0       -0.981413    1.020599    2.182814
      3          6           0        0.390069    2.673427    1.975043
      4          1           0        0.541493    2.755230    3.055865
      5          1           0        0.340359    3.702262    1.585043
      6          6           0        1.550291    1.932047    1.336702
      7          6           0        1.430178    1.624147   -0.161192
      8          6           0        0.017233    1.015157   -0.419431
      9          1           0        0.000000    0.000000    0.000000
     10          1           0       -0.139668    0.908237   -1.498175
     11          6           0       -1.150354    1.809117    0.186604
     12          1           0       -1.235578    2.795293   -0.293294
     13          1           0       -2.095639    1.287041    0.000000
     14          6           0        2.611434    1.583808    2.080896
     15          1           0        2.620524    1.836329    3.139603
     16          6           0        3.816657    0.852876    1.563474
     17          1           0        4.731435    1.282239    1.991355
     18          6           0        3.904848    0.869375    0.026639
     19          1           0        4.211349    1.893579   -0.227508
     20          6           0        2.514762    0.577975   -0.600486
     21          1           0        2.195010   -0.386163   -0.178557
     22          6           0        2.595597    0.391096   -2.135446
     23          1           0        2.754796    1.358252   -2.622615
     24          1           0        1.633307    0.021456   -2.507940
     25          6           0        3.705584   -0.573755   -2.600193
     26          1           0        3.477215   -1.590524   -2.251544
     27          1           0        3.701059   -0.607612   -3.696028
     28          6           0        5.085488   -0.157012   -2.055263
     29          6           0        4.956544   -0.116023   -0.504755
     30          1           0        4.607923   -1.116562   -0.216176
     31          6           0        6.404703    0.000000    0.000000
     32          1           0        6.512904   -0.385737    1.017557
     33          1           0        6.730861    1.047844    0.015995
     34          6           0        7.222963   -0.820790   -1.037865
     35          1           0        8.055070   -0.228458   -1.431534
     36          1           0        7.668789   -1.714997   -0.588986
     37          6           0        6.227209   -1.226150   -2.171705
     38          1           0        5.756870   -2.159787   -1.835515
     39          6           0        5.502165    1.211065   -2.642777
     40          1           0        4.860992    2.023756   -2.291285
     41          1           0        6.529479    1.477097   -2.381151
     42          1           0        5.432723    1.200854   -3.734476
     43          6           0        6.941742   -1.598845   -3.503164
     44          1           0        7.692966   -2.343114   -3.191085
     45          6           0        7.730532   -0.475136   -4.206205
     46          1           0        7.073689    0.210299   -4.749795
     47          1           0        8.417833   -0.912586   -4.939299
     48          1           0        8.332182    0.118828   -3.512284
     49          6           0        1.573468    2.958416   -0.943937
     50          1           0        1.299148    2.833943   -1.995661
     51          1           0        0.928140    3.739064   -0.534155
     52          1           0        2.600114    3.335032   -0.900394
     53          8           0        3.791757   -0.544620    1.965657
     54          8           0        3.964527   -0.590843    3.409852
     55          1           0        3.072523   -0.850669    3.694042
     56          8           0       -2.045464    2.714272    2.294299
     57          1           0       -2.105165    3.589881    1.886977
     58          6           0        6.046165   -2.312357   -4.545605
     59          1           0        5.235954   -1.640977   -4.860764
     60          1           0        6.661194   -2.471633   -5.440995
     61          6           0        5.452439   -3.661378   -4.111562
     62          1           0        6.266307   -4.329317   -3.797762
     63          1           0        4.823070   -3.522638   -3.224907
     64          6           0        4.590332   -4.351166   -5.186124
     65          1           0        3.757995   -3.681509   -5.447234
     66          1           0        4.129457   -5.245937   -4.741902
     67          6           0        5.299465   -4.776313   -6.489867
     68          1           0        5.742253   -3.882003   -6.950904
     69          6           0        6.429970   -5.787149   -6.240340
     70          1           0        6.042291   -6.693126   -5.756370
     71          1           0        6.899242   -6.089843   -7.183364
     72          1           0        7.216555   -5.377758   -5.598247
     73          6           0        4.276929   -5.346817   -7.485886
     74          1           0        3.801562   -6.250803   -7.083750
     75          1           0        4.753534   -5.616846   -8.435183
     76          1           0        3.483358   -4.622494   -7.702960
 ---------------------------------------------------------------------

 SCF Done:  E(RHF) =  -1273.67684262     A.U. after    9 cycles

 Alpha  occ. eigenvalues --  -20.62358 -20.62032 -20.56077 -11.28481 -11.28248
 Alpha  occ. eigenvalues --  -11.24983 -11.24545 -11.23100 -11.23013 -11.22974
 Alpha  occ. eigenvalues --  -11.22945 -11.22686 -11.22682 -11.22462 -11.22419
 Alpha  occ. eigenvalues --  -11.22369 -11.22270 -11.21950 -11.21852 -11.21613
 Alpha  occ. eigenvalues --  -11.21518 -11.21424 -11.21324 -11.21320 -11.21076
 Alpha  occ. eigenvalues --  -11.21013 -11.20983 -11.20899 -11.20897 -11.20806
 Alpha  occ. eigenvalues --   -1.45663  -1.35456  -1.22102  -1.15606  -1.13905
 Alpha  occ. eigenvalues --   -1.09543  -1.07969  -1.05807  -1.05712  -1.03117
 Alpha  occ. eigenvalues --   -1.01552  -0.99646  -0.97965  -0.96418  -0.92614
 Alpha  occ. eigenvalues --   -0.92430  -0.92361  -0.91649  -0.90462  -0.86249
 Alpha  occ. eigenvalues --   -0.83719  -0.82798  -0.82493  -0.79626  -0.78447
 Alpha  occ. eigenvalues --   -0.77056  -0.74874  -0.73548  -0.71860  -0.70749
 Alpha  occ. eigenvalues --   -0.69032  -0.67107  -0.65255  -0.64746  -0.64373
 Alpha  occ. eigenvalues --   -0.63787  -0.63266  -0.62745  -0.62439  -0.61337
 Alpha  occ. eigenvalues --   -0.61086  -0.59832  -0.59435  -0.59061  -0.58401
 Alpha  occ. eigenvalues --   -0.57872  -0.57675  -0.57359  -0.56265  -0.55922
 Alpha  occ. eigenvalues --   -0.55436  -0.54569  -0.54223  -0.54032  -0.53793
 Alpha  occ. eigenvalues --   -0.53504  -0.53221  -0.52948  -0.52828  -0.51894
 Alpha  occ. eigenvalues --   -0.50811  -0.50508  -0.49942  -0.49688  -0.49058
 Alpha  occ. eigenvalues --   -0.48848  -0.48105  -0.47998  -0.47258  -0.47220
 Alpha  occ. eigenvalues --   -0.46676  -0.46198  -0.45429  -0.45126  -0.44755
 Alpha  occ. eigenvalues --   -0.44602  -0.44339  -0.44195  -0.43195  -0.42897
 Alpha  occ. eigenvalues --   -0.42466  -0.41958  -0.41590  -0.40184  -0.38919
 Alpha  occ. eigenvalues --   -0.34699
 Alpha virt. eigenvalues --    0.16015   0.20201   0.21013   0.21766   0.22328
 Alpha virt. eigenvalues --    0.22825   0.23019   0.23925   0.24307   0.24635
 Alpha virt. eigenvalues --    0.25009   0.25953   0.26546   0.26893   0.27154

 Mulliken charges:
               1
     1  C    0.194097
     2  H    0.172046
     3  C   -0.368807
     4  H    0.192316
     5  H    0.155668
     6  C    0.083536
     7  C   -0.044743
     8  C   -0.325476
     9  H    0.168031
    10  H    0.173684
    11  C   -0.341367
    12  H    0.145154
    13  H    0.184098
    14  C   -0.277490
    15  H    0.193502
    16  C    0.192952
    17  H    0.186892
    18  C   -0.210220
    19  H    0.172027
    20  C   -0.157591
    21  H    0.177938
    22  C   -0.329443
    23  H    0.165708
    24  H    0.165399
    25  C   -0.301861
    26  H    0.156497
    27  H    0.161642
    28  C   -0.023148
    29  C   -0.156460
    30  H    0.187742
    31  C   -0.325382
    32  H    0.188355
    33  H    0.151447
    34  C   -0.327772
    35  H    0.158856
    36  H    0.167022
    37  C   -0.157737
    38  H    0.163454
    39  C   -0.487158
    40  H    0.158285
    41  H    0.167399
    42  H    0.161347
    43  C   -0.140396
    44  H    0.152227
    45  C   -0.482697
    46  H    0.156030
    47  H    0.157838
    48  H    0.160564
    49  C   -0.482570
    50  H    0.168160
    51  H    0.162972
    52  H    0.169521
    53  O   -0.398573
    54  O   -0.464268
    55  H    0.459457
    56  O   -0.758759
    57  H    0.428777
    58  C   -0.306198
    59  H    0.151539
    60  H    0.157283
    61  C   -0.317606
    62  H    0.154547
    63  H    0.162494
    64  C   -0.297347
    65  H    0.150479
    66  H    0.151177
    67  C   -0.152667
    68  H    0.156148
    69  C   -0.476365
    70  H    0.152372
    71  H    0.158106
    72  H    0.161465
    73  C   -0.471567
    74  H    0.152369
    75  H    0.158056
    76  H    0.156994
 Sum of Mulliken charges =   0.00000

 Dipole moment (field-independent basis, Debye):
    X=             -0.7305    Y=              1.6360    Z=             -1.7716  Tot=              2.5197
 Quadrupole moment (field-independent basis, Debye-Ang):
   XX=           -205.4903   YY=           -185.2254   ZZ=           -195.5985
   XY=              4.7674   XZ=             -2.1270   YZ=             -2.4510

 ESP charges:
               1
     1  C    0.570330
     2  H    0.036318
     3  C   -0.528950
     4  H    0.160765
     5  H    0.138911
     6  C    0.151115
     7  C    0.352711
     8  C    0.005891
     9  H   -0.003007
    10  H    0.051711
    11  C   -0.378972
    12  H    0.087435
    13  H    0.097467
    14  C   -0.456421
    15  H    0.159729
    16  C    0.530042
    17  H    0.038557
    18  C   -0.589108
    19  H    0.153076
    20  C   -0.298365
    21  H    0.132700
    22  C   -0.060010
    23  H    0.055059
    24  H    0.041641
    25  C   -0.303001
    26  H    0.072465
    27  H    0.064793
    28  C    0.725898
    29  C    0.365645
    30  H   -0.054717
    31  C   -0.216443
    32  H    0.100413
    33  H    0.021963
    34  C   -0.229225
    35  H    0.071043
    36  H    0.057913
    37  C   -0.055144
    38  H   -0.029987
    39  C   -0.689862
    40  H    0.144314
    41  H    0.151826
    42  H    0.137120
    43  C    0.205419
    44  H    0.010573
    45  C   -0.463068
    46  H    0.099800
    47  H    0.105827
    48  H    0.108270
    49  C   -0.442716
    50  H    0.103540
    51  H    0.104864
    52  H    0.125445
    53  O   -0.290791
    54  O   -0.470379
    55  H    0.442800
    56  O   -0.751180
    57  H    0.426986
    58  C   -0.244212
    59  H    0.041229
    60  H    0.080910
    61  C    0.064948
    62  H    0.006755
    63  H   -0.003415
    64  C   -0.292521
    65  H    0.058087
    66  H    0.066581
    67  C    0.532265
    68  H   -0.061542
    69  C   -0.510020
    70  H    0.117105
    71  H    0.108202
    72  H    0.115227
    73  C   -0.517081
    74  H    0.115340
    75  H    0.117713
    76  H    0.105402
 Sum of ESP charges =   0.00000

 Normal termination of Gaussian 09 at Wed Apr 26 13:39:38 2017.
