 Gaussian 09, Revision D.01,
 Gaussian 09:  EM64L-G09RevD.01 24-Apr-2013

 ----------------------------------------------------------------------
 #P HF/6-31G* SCF(Conver=6) NoSymm Test Pop=mk IOp(6/33=2) GFInput GFPr
 int
 ----------------------------------------------------------------------

 ----------------------------------------------
 MEP - Input generated by R.E.D.-III.x MOLECULE
 ----------------------------------------------
 Symbolic Z-matrix:
 Charge =  0 Multiplicity = 1

                          Input orientation:
 ---------------------------------------------------------------------
 Center     Atomic      Atomic             Coordinates (Angstroms)
 Number     Number       Type             X           Y           Z
 ---------------------------------------------------------------------
      1          6           0        1.013212   -0.877817   -1.690382
      2          1           0        1.142727    0.093918   -2.182516
      3          6           0        2.249228   -1.746579   -1.972732
      4          1           0        2.387054   -1.851249   -3.053403
      5          1           0        2.044953   -2.755799   -1.581827
      6          6           0        3.507575   -1.187565   -1.334460
      7          6           0        3.434788   -0.863962    0.163140
      8          6           0        2.129548   -0.048817    0.420273
      9          1           0        2.265731    0.956949    0.000000
     10          1           0        1.990166    0.081472    1.498863
     11          6           0        0.856067   -0.658486   -0.185758
     12          1           0        0.623259   -1.620297    0.294725
     13          1           0        0.000000    0.000000    0.000000
     14          6           0        4.609004   -1.003159   -2.078753
     15          1           0        4.580228   -1.255244   -3.137215
     16          6           0        5.910010   -0.460463   -1.561714
     17          1           0        6.750282   -1.021850   -1.989570
     18          6           0        5.994959   -0.489297   -0.024914
     19          1           0        6.144832   -1.547672    0.230037
     20          6           0        4.664454    0.007189    0.602639
     21          1           0        4.493070    1.008786    0.181605
     22          6           0        4.773267    0.178299    2.137711
     23          1           0        4.785962   -0.802645    2.623365
     24          1           0        3.877251    0.687165    2.511371
     25          6           0        6.015333    0.964964    2.603919
     26          1           0        5.943381    2.005982    2.258699
     27          1           0        6.017555    0.997258    3.699506
     28          6           0        7.316495    0.347264    2.056178
     29          6           0        7.181930    0.328143    0.506130
     30          1           0        6.985437    1.369878    0.219378
     31          6           0        8.596508    0.000000    0.000000
     32          1           0        8.759538    0.364529   -1.018068
     33          1           0        8.765443   -1.084394   -0.014866
     34          6           0        9.526925    0.693072    1.036650
     35          1           0       10.267606   -0.012895    1.425509
     36          1           0       10.094153    1.515644    0.587798
     37          6           0        8.604081    1.232704    2.175048
     38          1           0        8.274597    2.232987    1.855847
     39          6           0        7.527932   -1.066782    2.644353
     40          1           0        6.768469   -1.774706    2.301991
     41          1           0        8.501312   -1.485040    2.375038
     42          1           0        7.471097   -1.042811    3.736680
     43          6           0        9.356988    1.495257    3.512318
     44          1           0       10.188645    2.152604    3.209036
     45          6           0       10.007326    0.276790    4.198359
     46          1           0        9.274175   -0.329844    4.738609
     47          1           0       10.756481    0.604818    4.925821
     48          1           0       10.521001   -0.376006    3.486791
     49          6           0        3.374915   -2.204147    0.946551
     50          1           0        3.122749   -2.039100    1.998217
     51          1           0        2.618950   -2.878449    0.537237
     52          1           0        4.332843   -2.731588    0.903048
     53          8           0        6.094269    0.924926   -1.964438
     54          8           0        6.270034    0.944501   -3.408848
     55          1           0        5.426492    1.334748   -3.691878
     56          8           0       -0.164576   -1.419970   -2.293220
     57          1           0       -0.356605   -2.275596   -1.884327
     58          6           0        8.509160    2.311684    4.514430
     59          1           0        7.955783    3.084624    3.963435
     60          1           0        7.750892    1.660153    4.970074
     61          6           0        9.311689    2.995874    5.632789
     62          1           0        9.830454    2.239305    6.232467
     63          1           0       10.094852    3.623065    5.180807
     64          6           0        8.435013    3.866354    6.545445
     65          1           0        7.675697    3.234663    7.031912
     66          1           0        7.879486    4.579450    5.919490
     67          6           0        9.190280    4.659055    7.631802
     68          1           0        9.970460    5.251023    7.128527
     69          6           0        8.242465    5.640513    8.339494
     70          1           0        7.438728    5.101988    8.858012
     71          1           0        8.775106    6.240037    9.086533
     72          1           0        7.775142    6.329722    7.626804
     73          6           0        9.880498    3.745450    8.657726
     74          1           0        9.144620    3.112291    9.170596
     75          1           0       10.398413    4.336356    9.421777
     76          1           0       10.621230    3.087368    8.192734
 ---------------------------------------------------------------------

 SCF Done:  E(RHF) =  -1273.67975153     A.U. after    9 cycles

 Alpha  occ. eigenvalues --  -20.62338 -20.62011 -20.56062 -11.28458 -11.28230
 Alpha  occ. eigenvalues --  -11.24956 -11.24522 -11.23081 -11.22977 -11.22950
 Alpha  occ. eigenvalues --  -11.22915 -11.22668 -11.22620 -11.22467 -11.22418
 Alpha  occ. eigenvalues --  -11.22396 -11.22244 -11.21912 -11.21888 -11.21497
 Alpha  occ. eigenvalues --  -11.21492 -11.21436 -11.21355 -11.21291 -11.21069
 Alpha  occ. eigenvalues --  -11.21029 -11.21012 -11.20898 -11.20888 -11.20784
 Alpha  occ. eigenvalues --   -1.45644  -1.35439  -1.22079  -1.15580  -1.13891
 Alpha  occ. eigenvalues --   -1.09565  -1.08002  -1.05854  -1.05764  -1.03075
 Alpha  occ. eigenvalues --   -1.01653  -0.99525  -0.97944  -0.96327  -0.92603
 Alpha  occ. eigenvalues --   -0.92410  -0.92352  -0.91749  -0.90390  -0.86222
 Alpha  occ. eigenvalues --   -0.83921  -0.82876  -0.82525  -0.78462  -0.78428
 Alpha  occ. eigenvalues --   -0.76590  -0.75955  -0.73567  -0.71872  -0.70743
 Alpha  occ. eigenvalues --   -0.69012  -0.67088  -0.65227  -0.64614  -0.64512
 Alpha  occ. eigenvalues --   -0.64134  -0.63737  -0.62811  -0.61978  -0.61229
 Alpha  occ. eigenvalues --   -0.60672  -0.59914  -0.59610  -0.59035  -0.58869
 Alpha  occ. eigenvalues --   -0.58021  -0.57625  -0.57095  -0.56347  -0.55933
 Alpha  occ. eigenvalues --   -0.55509  -0.55104  -0.54236  -0.53905  -0.53633
 Alpha  occ. eigenvalues --   -0.53200  -0.53091  -0.52820  -0.51825  -0.51672
 Alpha  occ. eigenvalues --   -0.50760  -0.50440  -0.50061  -0.49668  -0.49032
 Alpha  occ. eigenvalues --   -0.48726  -0.48077  -0.47717  -0.47225  -0.46933
 Alpha  occ. eigenvalues --   -0.46626  -0.46293  -0.45832  -0.45277  -0.45019
 Alpha  occ. eigenvalues --   -0.44910  -0.44447  -0.44218  -0.43072  -0.42961
 Alpha  occ. eigenvalues --   -0.42741  -0.42201  -0.41227  -0.40167  -0.38869
 Alpha  occ. eigenvalues --   -0.34677
 Alpha virt. eigenvalues --    0.16037   0.20341   0.21263   0.21956   0.22399
 Alpha virt. eigenvalues --    0.22647   0.23191   0.24064   0.24357   0.24740
 Alpha virt. eigenvalues --    0.25339   0.26200   0.26529   0.26768   0.27098

 Mulliken charges:
               1
     1  C    0.194111
     2  H    0.172001
     3  C   -0.368743
     4  H    0.192249
     5  H    0.155648
     6  C    0.083587
     7  C   -0.044781
     8  C   -0.325385
     9  H    0.168025
    10  H    0.173744
    11  C   -0.341427
    12  H    0.145106
    13  H    0.184040
    14  C   -0.277592
    15  H    0.193451
    16  C    0.192953
    17  H    0.186708
    18  C   -0.210016
    19  H    0.171881
    20  C   -0.157384
    21  H    0.177911
    22  C   -0.330098
    23  H    0.165198
    24  H    0.165298
    25  C   -0.298873
    26  H    0.154963
    27  H    0.162859
    28  C   -0.023650
    29  C   -0.156023
    30  H    0.187825
    31  C   -0.325605
    32  H    0.188458
    33  H    0.151348
    34  C   -0.328440
    35  H    0.159179
    36  H    0.167189
    37  C   -0.155338
    38  H    0.156611
    39  C   -0.486494
    40  H    0.158258
    41  H    0.167121
    42  H    0.161005
    43  C   -0.136260
    44  H    0.152849
    45  C   -0.485760
    46  H    0.155253
    47  H    0.162224
    48  H    0.161195
    49  C   -0.482580
    50  H    0.168233
    51  H    0.162862
    52  H    0.169450
    53  O   -0.398513
    54  O   -0.464362
    55  H    0.459421
    56  O   -0.758814
    57  H    0.428759
    58  C   -0.304710
    59  H    0.154107
    60  H    0.150542
    61  C   -0.310338
    62  H    0.160255
    63  H    0.149766
    64  C   -0.295261
    65  H    0.146622
    66  H    0.152089
    67  C   -0.147326
    68  H    0.151823
    69  C   -0.472467
    70  H    0.152232
    71  H    0.158222
    72  H    0.157940
    73  C   -0.476350
    74  H    0.151333
    75  H    0.158437
    76  H    0.162245
 Sum of Mulliken charges =   0.00000

 Dipole moment (field-independent basis, Debye):
    X=             -0.8973    Y=             -1.3990    Z=              1.7633  Tot=              2.4232
 Quadrupole moment (field-independent basis, Debye-Ang):
   XX=           -209.6888   YY=           -185.9604   ZZ=           -196.4291
   XY=             -4.6163   XZ=              5.5578   YZ=             -0.6731

 ESP charges:
               1
     1  C    0.560608
     2  H    0.037777
     3  C   -0.536139
     4  H    0.158894
     5  H    0.140159
     6  C    0.250905
     7  C    0.208256
     8  C   -0.009905
     9  H    0.009920
    10  H    0.062772
    11  C   -0.364322
    12  H    0.090102
    13  H    0.094394
    14  C   -0.537833
    15  H    0.172008
    16  C    0.595578
    17  H    0.023213
    18  C   -0.484463
    19  H    0.126245
    20  C   -0.346565
    21  H    0.128604
    22  C    0.206568
    23  H   -0.015724
    24  H   -0.019190
    25  C   -0.281025
    26  H    0.023490
    27  H    0.008867
    28  C    0.722342
    29  C    0.228574
    30  H   -0.027836
    31  C   -0.217938
    32  H    0.100817
    33  H    0.030774
    34  C   -0.212248
    35  H    0.072592
    36  H    0.055596
    37  C   -0.024430
    38  H   -0.021263
    39  C   -0.683334
    40  H    0.149511
    41  H    0.145558
    42  H    0.135799
    43  C    0.119371
    44  H    0.015955
    45  C   -0.434795
    46  H    0.098164
    47  H    0.097911
    48  H    0.103239
    49  C   -0.389686
    50  H    0.096732
    51  H    0.098489
    52  H    0.113586
    53  O   -0.301465
    54  O   -0.472434
    55  H    0.445795
    56  O   -0.747239
    57  H    0.424831
    58  C   -0.108570
    59  H    0.010252
    60  H    0.043808
    61  C    0.062627
    62  H    0.030565
    63  H   -0.005358
    64  C   -0.278934
    65  H    0.058550
    66  H    0.065053
    67  C    0.447898
    68  H   -0.044218
    69  C   -0.465689
    70  H    0.105079
    71  H    0.107027
    72  H    0.096327
    73  C   -0.437068
    74  H    0.106023
    75  H    0.098071
    76  H    0.082396
 Sum of ESP charges =   0.00000

 Normal termination of Gaussian 09 at Wed Apr 26 13:36:21 2017.
