 Gaussian 09, Revision D.01,
 Gaussian 09:  EM64L-G09RevD.01 24-Apr-2013

 ----------------------------------------------------------------------
 #P HF/6-31G* SCF(Conver=6) NoSymm Test Pop=mk IOp(6/33=2) GFInput GFPr
 int
 ----------------------------------------------------------------------

 ----------------------------------------------
 MEP - Input generated by R.E.D.-III.x MOLECULE
 ----------------------------------------------
 Symbolic Z-matrix:
 Charge =  0 Multiplicity = 1

                          Input orientation:
 ---------------------------------------------------------------------
 Center     Atomic      Atomic             Coordinates (Angstroms)
 Number     Number       Type             X           Y           Z
 ---------------------------------------------------------------------
      1          6           0        1.758320   -1.249064    0.052692
      2          1           0        1.882612   -1.207598   -1.036378
      3          6           0        3.146991   -1.262279    0.711331
      4          1           0        3.726158   -2.110388    0.333065
      5          1           0        3.003991   -1.434410    1.789785
      6          6           0        3.905990    0.032969    0.488795
      7          6           0        3.173884    1.331205    0.851292
      8          6           0        1.744551    1.272173    0.229027
      9          1           0        1.839929    1.387643   -0.859224
     10          1           0        1.159994    2.128604    0.582083
     11          6           0        0.968598   -0.023437    0.512081
     12          1           0        0.754019   -0.116920    1.586945
     13          1           0        0.000000    0.000000    0.000000
     14          6           0        5.155401    0.000000    0.000000
     15          1           0        5.605995   -0.962441   -0.235396
     16          6           0        6.004620    1.210658   -0.260136
     17          1           0        7.037182    1.023900    0.060989
     18          6           0        5.464739    2.474160    0.434152
     19          1           0        5.702052    2.337208    1.498645
     20          6           0        3.926455    2.575082    0.259819
     21          1           0        3.747639    2.550586   -0.825183
     22          6           0        3.375771    3.925664    0.776175
     23          1           0        3.381275    3.937223    1.870867
     24          1           0        2.325317    4.028425    0.480295
     25          6           0        4.148197    5.163892    0.276694
     26          1           0        4.025816    5.261287   -0.811431
     27          1           0        3.693072    6.054124    0.721947
     28          6           0        5.654757    5.066062    0.595234
     29          6           0        6.153199    3.751988   -0.069301
     30          1           0        5.886790    3.847086   -1.130953
     31          6           0        7.683275    3.839649    0.000000
     32          1           0        8.163716    3.225046   -0.766316
     33          1           0        8.052449    3.489567    0.972545
     34          6           0        7.968462    5.354383   -0.191258
     35          1           0        8.641180    5.727336    0.590383
     36          1           0        8.469099    5.543933   -1.145155
     37          6           0        6.591113    6.099645   -0.124336
     38          1           0        6.206209    6.192990   -1.152257
     39          6           0        5.899662    5.095110    2.121171
     40          1           0        5.433209    4.251362    2.636374
     41          1           0        6.966389    5.070429    2.363550
     42          1           0        5.487123    6.008499    2.562497
     43          6           0        6.722285    7.540661    0.435456
     44          1           0        7.162478    7.465262    1.439775
     45          6           0        5.374409    8.270785    0.562128
     46          1           0        4.856775    8.312556   -0.404687
     47          1           0        5.511419    9.300078    0.907370
     48          1           0        4.707637    7.783175    1.276514
     49          6           0        3.065672    1.410679    2.398934
     50          1           0        2.384259    2.208134    2.709760
     51          1           0        2.685723    0.479528    2.825968
     52          1           0        4.042638    1.597928    2.855283
     53          8           0        6.064293    1.509732   -1.682197
     54          8           0        6.804258    0.435750   -2.327771
     55          1           0        6.090771   -0.017871   -2.806401
     56          8           0        1.053908   -2.473022    0.276908
     57          1           0        0.885013   -2.564544    1.225202
     58          6           0        7.698009    8.356869   -0.451110
     59          1           0        8.639818    7.804862   -0.550274
     60          1           0        7.271817    8.412872   -1.463965
     61          6           0        8.042626    9.786493    0.011272
     62          1           0        8.689979   10.227782   -0.756590
     63          1           0        7.140521   10.412150    0.032850
     64          6           0        8.743122    9.864284    1.376293
     65          1           0        9.644241    9.231423    1.359460
     66          1           0        8.086263    9.434726    2.144115
     67          6           0        9.141652   11.284872    1.828947
     68          1           0        8.241507   11.916525    1.771292
     69          6           0        9.610659   11.272364    3.292749
     70          1           0       10.506015   10.648392    3.410383
     71          1           0        9.862257   12.281223    3.639364
     72          1           0        8.836604   10.872098    3.957589
     73          6           0       10.217215   11.914124    0.928370
     74          1           0       11.132725   11.308246    0.936815
     75          1           0       10.481559   12.918437    1.278577
     76          1           0        9.886625   12.005447   -0.110955
 ---------------------------------------------------------------------

 SCF Done:  E(RHF) =  -1273.68314220     A.U. after    9 cycles

 Alpha  occ. eigenvalues --  -20.62340 -20.62013 -20.56062 -11.28458 -11.28232
 Alpha  occ. eigenvalues --  -11.24952 -11.24521 -11.23083 -11.22961 -11.22951
 Alpha  occ. eigenvalues --  -11.22905 -11.22669 -11.22657 -11.22451 -11.22398
 Alpha  occ. eigenvalues --  -11.22251 -11.22173 -11.21892 -11.21890 -11.21487
 Alpha  occ. eigenvalues --  -11.21433 -11.21362 -11.21289 -11.21286 -11.21102
 Alpha  occ. eigenvalues --  -11.21022 -11.21015 -11.20950 -11.20803 -11.20786
 Alpha  occ. eigenvalues --   -1.45645  -1.35439  -1.22086  -1.15589  -1.13917
 Alpha  occ. eigenvalues --   -1.09604  -1.07982  -1.05804  -1.05735  -1.03076
 Alpha  occ. eigenvalues --   -1.01595  -0.99392  -0.97964  -0.96325  -0.92948
 Alpha  occ. eigenvalues --   -0.92336  -0.92312  -0.91109  -0.90684  -0.86224
 Alpha  occ. eigenvalues --   -0.84259  -0.82676  -0.82519  -0.78730  -0.77832
 Alpha  occ. eigenvalues --   -0.76945  -0.75781  -0.73391  -0.72087  -0.70829
 Alpha  occ. eigenvalues --   -0.69099  -0.67115  -0.65628  -0.64605  -0.64429
 Alpha  occ. eigenvalues --   -0.63942  -0.63362  -0.62776  -0.62083  -0.61387
 Alpha  occ. eigenvalues --   -0.60579  -0.60267  -0.59232  -0.59047  -0.58313
 Alpha  occ. eigenvalues --   -0.58187  -0.57540  -0.57171  -0.56305  -0.55829
 Alpha  occ. eigenvalues --   -0.55392  -0.54560  -0.54275  -0.53896  -0.53772
 Alpha  occ. eigenvalues --   -0.53650  -0.53086  -0.52901  -0.52542  -0.51934
 Alpha  occ. eigenvalues --   -0.51000  -0.50505  -0.49869  -0.49650  -0.49028
 Alpha  occ. eigenvalues --   -0.48888  -0.48119  -0.47640  -0.47277  -0.46883
 Alpha  occ. eigenvalues --   -0.46414  -0.46104  -0.45445  -0.45199  -0.45059
 Alpha  occ. eigenvalues --   -0.44881  -0.44065  -0.43744  -0.43206  -0.42866
 Alpha  occ. eigenvalues --   -0.42847  -0.42438  -0.41645  -0.40201  -0.38888
 Alpha  occ. eigenvalues --   -0.34678
 Alpha virt. eigenvalues --    0.16039   0.20487   0.21348   0.21922   0.22336
 Alpha virt. eigenvalues --    0.23010   0.23200   0.24255   0.24346   0.25183
 Alpha virt. eigenvalues --    0.25488   0.26065   0.26547   0.26907   0.27038

 Mulliken charges:
               1
     1  C    0.194090
     2  H    0.172055
     3  C   -0.368743
     4  H    0.192243
     5  H    0.155629
     6  C    0.083463
     7  C   -0.044704
     8  C   -0.325410
     9  H    0.168069
    10  H    0.173693
    11  C   -0.341391
    12  H    0.145094
    13  H    0.184044
    14  C   -0.277106
    15  H    0.193404
    16  C    0.192002
    17  H    0.186689
    18  C   -0.209724
    19  H    0.171899
    20  C   -0.157474
    21  H    0.178035
    22  C   -0.329405
    23  H    0.164157
    24  H    0.165319
    25  C   -0.298375
    26  H    0.155442
    27  H    0.163900
    28  C   -0.029745
    29  C   -0.153212
    30  H    0.187159
    31  C   -0.325528
    32  H    0.188962
    33  H    0.150892
    34  C   -0.336063
    35  H    0.158065
    36  H    0.171326
    37  C   -0.136359
    38  H    0.154863
    39  C   -0.489933
    40  H    0.159334
    41  H    0.166304
    42  H    0.162696
    43  C   -0.155456
    44  H    0.157247
    45  C   -0.484795
    46  H    0.153254
    47  H    0.162891
    48  H    0.160796
    49  C   -0.482692
    50  H    0.168143
    51  H    0.162909
    52  H    0.169460
    53  O   -0.398308
    54  O   -0.464464
    55  H    0.459471
    56  O   -0.758818
    57  H    0.428748
    58  C   -0.308281
    59  H    0.165586
    60  H    0.151203
    61  C   -0.314552
    62  H    0.160100
    63  H    0.153393
    64  C   -0.300556
    65  H    0.146797
    66  H    0.155971
    67  C   -0.146292
    68  H    0.150742
    69  C   -0.472254
    70  H    0.152722
    71  H    0.157984
    72  H    0.156964
    73  C   -0.476295
    74  H    0.152016
    75  H    0.158150
    76  H    0.162558
 Sum of Mulliken charges =   0.00000

 Dipole moment (field-independent basis, Debye):
    X=             -1.3399    Y=              0.4645    Z=              2.1044  Tot=              2.5376
 Quadrupole moment (field-independent basis, Debye-Ang):
   XX=           -210.1635   YY=           -195.0668   ZZ=           -187.8960
   XY=             -6.0521   XZ=              8.1066   YZ=              0.4608

 ESP charges:
               1
     1  C    0.544265
     2  H    0.039113
     3  C   -0.481314
     4  H    0.143529
     5  H    0.127545
     6  C    0.211753
     7  C    0.256867
     8  C   -0.060962
     9  H    0.013498
    10  H    0.071546
    11  C   -0.347551
    12  H    0.087731
    13  H    0.092669
    14  C   -0.531217
    15  H    0.173151
    16  C    0.582238
    17  H    0.035832
    18  C   -0.638214
    19  H    0.152374
    20  C   -0.156964
    21  H    0.088353
    22  C    0.071592
    23  H    0.007532
    24  H   -0.006097
    25  C   -0.239277
    26  H    0.023154
    27  H    0.047296
    28  C    0.621837
    29  C    0.464025
    30  H   -0.052551
    31  C   -0.396222
    32  H    0.129580
    33  H    0.060965
    34  C    0.010689
    35  H    0.021594
    36  H    0.027073
    37  C   -0.364655
    38  H    0.039143
    39  C   -0.679963
    40  H    0.149024
    41  H    0.151106
    42  H    0.142276
    43  C    0.399658
    44  H   -0.044008
    45  C   -0.470869
    46  H    0.093659
    47  H    0.116637
    48  H    0.091007
    49  C   -0.382832
    50  H    0.090552
    51  H    0.092386
    52  H    0.104493
    53  O   -0.300177
    54  O   -0.472778
    55  H    0.444228
    56  O   -0.744325
    57  H    0.422291
    58  C   -0.075359
    59  H    0.018751
    60  H    0.022989
    61  C   -0.116911
    62  H    0.052299
    63  H    0.026146
    64  C   -0.159169
    65  H    0.045354
    66  H    0.033413
    67  C    0.436647
    68  H   -0.041353
    69  C   -0.493634
    70  H    0.108936
    71  H    0.116411
    72  H    0.102041
    73  C   -0.445256
    74  H    0.107109
    75  H    0.098353
    76  H    0.090948
 Sum of ESP charges =   0.00000

 Normal termination of Gaussian 09 at Wed Apr 26 14:50:13 2017.
