 Gaussian 09, Revision D.01,
 Gaussian 09:  EM64L-G09RevD.01 24-Apr-2013

 ----------------------------------------------------------------------
 #P HF/6-31G* SCF(Conver=6) NoSymm Test Pop=mk IOp(6/33=2) GFInput GFPr
 int
 ----------------------------------------------------------------------

 ----------------------------------------------
 MEP - Input generated by R.E.D.-III.x MOLECULE
 ----------------------------------------------
 Symbolic Z-matrix:
 Charge =  0 Multiplicity = 1

                          Input orientation:
 ---------------------------------------------------------------------
 Center     Atomic      Atomic             Coordinates (Angstroms)
 Number     Number       Type             X           Y           Z
 ---------------------------------------------------------------------
      1          6           0        1.013280   -0.880068   -1.689194
      2          1           0        1.142700    0.091106   -2.182457
      3          6           0        2.249452   -1.748971   -1.970506
      4          1           0        2.387421   -1.854683   -3.051059
      5          1           0        2.045288   -2.757878   -1.578695
      6          6           0        3.507716   -1.189467   -1.332592
      7          6           0        3.434724   -0.864381    0.164642
      8          6           0        2.129424   -0.049142    0.420918
      9          1           0        2.265711    0.956340    0.000000
     10          1           0        1.989785    0.081945    1.499385
     11          6           0        0.855863   -0.659016   -0.184833
     12          1           0        0.622536   -1.620190    0.296692
     13          1           0        0.000000    0.000000    0.000000
     14          6           0        4.609430   -1.006205   -2.076735
     15          1           0        4.580856   -1.259249   -3.134977
     16          6           0        5.910642   -0.463823   -1.559882
     17          1           0        6.750640   -1.026741   -1.986244
     18          6           0        5.994914   -0.489657   -0.022920
     19          1           0        6.145060   -1.547487    0.234313
     20          6           0        4.664021    0.007657    0.603029
     21          1           0        4.492717    1.008383    0.179893
     22          6           0        4.772626    0.181940    2.137694
     23          1           0        4.784617   -0.798012    2.625408
     24          1           0        3.876770    0.692018    2.510137
     25          6           0        6.014898    0.969033    2.603216
     26          1           0        5.943142    2.009951    2.257623
     27          1           0        6.015752    1.001714    3.698779
     28          6           0        7.316769    0.351338    2.056882
     29          6           0        7.181466    0.329058    0.506742
     30          1           0        6.984613    1.370221    0.218207
     31          6           0        8.595559    0.000000    0.000000
     32          1           0        8.757691    0.362932   -1.018775
     33          1           0        8.764253   -1.084442   -0.013330
     34          6           0        9.526330    0.694751    1.034700
     35          1           0       10.266581   -0.010727    1.425553
     36          1           0       10.094097    1.515906    0.583941
     37          6           0        8.604703    1.237692    2.172603
     38          1           0        8.274807    2.237084    1.851097
     39          6           0        7.529360   -1.061274    2.647761
     40          1           0        6.768799   -1.769757    2.308928
     41          1           0        8.501909   -1.480390    2.376750
     42          1           0        7.475629   -1.034586    3.740154
     43          6           0        9.364807    1.504776    3.505390
     44          1           0       10.200537    2.146027    3.186571
     45          6           0       10.004849    0.287874    4.202196
     46          1           0        9.268434   -0.305935    4.752313
     47          1           0       10.759422    0.616652    4.924112
     48          1           0       10.510234   -0.377270    3.496073
     49          6           0        3.374985   -2.203765    0.949410
     50          1           0        3.124480   -2.037615    2.001300
     51          1           0        2.617776   -2.877795    0.541885
     52          1           0        4.332391   -2.732070    0.904891
     53          8           0        6.096224    0.920632   -1.965322
     54          8           0        6.274491    0.936901   -3.409497
     55          1           0        5.431928    1.327520   -3.694875
     56          8           0       -0.164383   -1.423056   -2.291557
     57          1           0       -0.356223   -2.278329   -1.881837
     58          6           0        8.519925    2.331944    4.502158
     59          1           0        8.009859    3.135023    3.951716
     60          1           0        7.727535    1.692106    4.911177
     61          6           0        9.280041    2.964864    5.685816
     62          1           0        8.534545    3.432592    6.341227
     63          1           0        9.754069    2.178353    6.285485
     64          6           0       10.325020    4.015671    5.275695
     65          1           0        9.842970    4.747803    4.611013
     66          1           0       11.111052    3.536007    4.677419
     67          6           0       11.011224    4.786300    6.428978
     68          1           0       11.726800    5.470379    5.949160
     69          6           0       10.029499    5.655470    7.232505
     70          1           0        9.315712    5.045639    7.798164
     71          1           0       10.566092    6.281833    7.954317
     72          1           0        9.455587    6.319882    6.575815
     73          6           0       11.820591    3.865150    7.356952
     74          1           0       11.169667    3.188763    7.922892
     75          1           0       12.394207    4.450940    8.084302
     76          1           0       12.529869    3.250713    6.789905
 ---------------------------------------------------------------------

 SCF Done:  E(RHF) =  -1273.67626377     A.U. after    9 cycles

 Alpha  occ. eigenvalues --  -20.62332 -20.62004 -20.56058 -11.28451 -11.28226
 Alpha  occ. eigenvalues --  -11.24949 -11.24515 -11.23076 -11.22967 -11.22945
 Alpha  occ. eigenvalues --  -11.22904 -11.22665 -11.22610 -11.22486 -11.22391
 Alpha  occ. eigenvalues --  -11.22292 -11.22239 -11.21890 -11.21883 -11.21494
 Alpha  occ. eigenvalues --  -11.21439 -11.21394 -11.21354 -11.21275 -11.21046
 Alpha  occ. eigenvalues --  -11.20998 -11.20970 -11.20880 -11.20866 -11.20772
 Alpha  occ. eigenvalues --   -1.45636  -1.35435  -1.22073  -1.15568  -1.13874
 Alpha  occ. eigenvalues --   -1.09519  -1.07893  -1.05773  -1.05695  -1.03065
 Alpha  occ. eigenvalues --   -1.01567  -0.99215  -0.97934  -0.96297  -0.92602
 Alpha  occ. eigenvalues --   -0.92391  -0.92338  -0.91789  -0.90586  -0.86217
 Alpha  occ. eigenvalues --   -0.84617  -0.83160  -0.82614  -0.78633  -0.78422
 Alpha  occ. eigenvalues --   -0.76793  -0.74257  -0.73153  -0.71857  -0.70742
 Alpha  occ. eigenvalues --   -0.69013  -0.67085  -0.65245  -0.64677  -0.64349
 Alpha  occ. eigenvalues --   -0.63772  -0.63087  -0.62908  -0.62621  -0.61472
 Alpha  occ. eigenvalues --   -0.61123  -0.59779  -0.59355  -0.59068  -0.58825
 Alpha  occ. eigenvalues --   -0.58053  -0.57696  -0.57306  -0.56142  -0.55844
 Alpha  occ. eigenvalues --   -0.55339  -0.55008  -0.54313  -0.54072  -0.53849
 Alpha  occ. eigenvalues --   -0.53473  -0.53135  -0.52202  -0.52110  -0.51778
 Alpha  occ. eigenvalues --   -0.51114  -0.50526  -0.49912  -0.49707  -0.49403
 Alpha  occ. eigenvalues --   -0.48959  -0.48149  -0.47973  -0.47358  -0.46902
 Alpha  occ. eigenvalues --   -0.46404  -0.46049  -0.45332  -0.45229  -0.44974
 Alpha  occ. eigenvalues --   -0.44601  -0.44293  -0.43514  -0.43043  -0.42840
 Alpha  occ. eigenvalues --   -0.42676  -0.42298  -0.41439  -0.40148  -0.38793
 Alpha  occ. eigenvalues --   -0.34670
 Alpha virt. eigenvalues --    0.16044   0.20163   0.21136   0.21694   0.22237
 Alpha virt. eigenvalues --    0.22687   0.23209   0.24113   0.24396   0.24803
 Alpha virt. eigenvalues --    0.25525   0.26027   0.26459   0.26730   0.27107

 Mulliken charges:
               1
     1  C    0.194099
     2  H    0.172012
     3  C   -0.368752
     4  H    0.192231
     5  H    0.155646
     6  C    0.083560
     7  C   -0.044816
     8  C   -0.325415
     9  H    0.168019
    10  H    0.173718
    11  C   -0.341381
    12  H    0.145078
    13  H    0.184009
    14  C   -0.277434
    15  H    0.193401
    16  C    0.192821
    17  H    0.186752
    18  C   -0.209905
    19  H    0.171853
    20  C   -0.157388
    21  H    0.177854
    22  C   -0.329956
    23  H    0.165126
    24  H    0.165203
    25  C   -0.298897
    26  H    0.155179
    27  H    0.162177
    28  C   -0.023719
    29  C   -0.156070
    30  H    0.187820
    31  C   -0.325627
    32  H    0.188502
    33  H    0.151242
    34  C   -0.328569
    35  H    0.158882
    36  H    0.167036
    37  C   -0.152909
    38  H    0.156426
    39  C   -0.486179
    40  H    0.158124
    41  H    0.166979
    42  H    0.160987
    43  C   -0.142225
    44  H    0.158335
    45  C   -0.486209
    46  H    0.155301
    47  H    0.161353
    48  H    0.161018
    49  C   -0.482485
    50  H    0.168218
    51  H    0.162817
    52  H    0.169473
    53  O   -0.398491
    54  O   -0.464416
    55  H    0.459415
    56  O   -0.758823
    57  H    0.428750
    58  C   -0.306720
    59  H    0.152662
    60  H    0.153870
    61  C   -0.317636
    62  H    0.159044
    63  H    0.159385
    64  C   -0.305775
    65  H    0.150725
    66  H    0.156062
    67  C   -0.145595
    68  H    0.155527
    69  C   -0.476392
    70  H    0.155540
    71  H    0.158265
    72  H    0.156960
    73  C   -0.476857
    74  H    0.156291
    75  H    0.158487
    76  H    0.156407
 Sum of Mulliken charges =   0.00000

 Dipole moment (field-independent basis, Debye):
    X=             -0.9194    Y=             -1.3654    Z=              1.8016  Tot=              2.4404
 Quadrupole moment (field-independent basis, Debye-Ang):
   XX=           -209.8254   YY=           -185.8541   ZZ=           -195.8254
   XY=             -4.6073   XZ=              5.4533   YZ=             -0.2615

 ESP charges:
               1
     1  C    0.554677
     2  H    0.039144
     3  C   -0.528777
     4  H    0.157978
     5  H    0.139619
     6  C    0.238154
     7  C    0.200953
     8  C   -0.020674
     9  H    0.010594
    10  H    0.064228
    11  C   -0.354703
    12  H    0.088389
    13  H    0.092994
    14  C   -0.528822
    15  H    0.169920
    16  C    0.596626
    17  H    0.024417
    18  C   -0.545144
    19  H    0.133151
    20  C   -0.253877
    21  H    0.111882
    22  C    0.131522
    23  H   -0.001798
    24  H   -0.006623
    25  C   -0.281058
    26  H    0.025605
    27  H    0.033930
    28  C    0.727352
    29  C    0.293316
    30  H   -0.032023
    31  C   -0.196603
    32  H    0.091675
    33  H    0.022734
    34  C   -0.203662
    35  H    0.068482
    36  H    0.060162
    37  C   -0.184490
    38  H   -0.001313
    39  C   -0.691986
    40  H    0.147669
    41  H    0.156315
    42  H    0.136684
    43  C    0.392052
    44  H   -0.017122
    45  C   -0.566916
    46  H    0.126701
    47  H    0.145935
    48  H    0.116970
    49  C   -0.385903
    50  H    0.095853
    51  H    0.097852
    52  H    0.111982
    53  O   -0.307081
    54  O   -0.471739
    55  H    0.446186
    56  O   -0.746672
    57  H    0.424394
    58  C   -0.380104
    59  H    0.070132
    60  H    0.068198
    61  C    0.218085
    62  H   -0.013302
    63  H   -0.030190
    64  C   -0.250921
    65  H    0.043438
    66  H    0.038488
    67  C    0.427067
    68  H   -0.055721
    69  C   -0.405516
    70  H    0.088384
    71  H    0.088056
    72  H    0.085937
    73  C   -0.392734
    74  H    0.083076
    75  H    0.087246
    76  H    0.081270
 Sum of ESP charges =   0.00000

 Normal termination of Gaussian 09 at Wed Apr 26 13:54:42 2017.
