 Gaussian 09, Revision D.01,
 Gaussian 09:  EM64L-G09RevD.01 24-Apr-2013

 ----------------------------------------------------------------------
 #P HF/6-31G* SCF(Conver=6) NoSymm Test Pop=mk IOp(6/33=2) GFInput GFPr
 int
 ----------------------------------------------------------------------

 ----------------------------------------------
 MEP - Input generated by R.E.D.-III.x MOLECULE
 ----------------------------------------------
 Symbolic Z-matrix:
 Charge =  0 Multiplicity = 1

                          Input orientation:
 ---------------------------------------------------------------------
 Center     Atomic      Atomic             Coordinates (Angstroms)
 Number     Number       Type             X           Y           Z
 ---------------------------------------------------------------------
      1          6           0        1.758359   -1.249030    0.052028
      2          1           0        1.883413   -1.206279   -1.036911
      3          6           0        3.146565   -1.262816    0.711578
      4          1           0        3.725876   -2.110860    0.333406
      5          1           0        3.002743   -1.435055    1.789885
      6          6           0        3.905499    0.032556    0.489700
      7          6           0        3.173704    1.330462    0.853571
      8          6           0        1.744150    1.272233    0.231476
      9          1           0        1.839272    1.389696   -0.856579
     10          1           0        1.159423    2.127838    0.586218
     11          6           0        0.968372   -0.023963    0.512468
     12          1           0        0.753284   -0.118829    1.587132
     13          1           0        0.000000    0.000000    0.000000
     14          6           0        5.154602    0.000000    0.000000
     15          1           0        5.605074   -0.962287   -0.236194
     16          6           0        6.003406    1.210909   -0.260527
     17          1           0        7.036531    1.023820    0.058643
     18          6           0        5.464595    2.473809    0.435713
     19          1           0        5.703481    2.336031    1.499666
     20          6           0        3.926075    2.574873    0.263080
     21          1           0        3.746512    2.551737   -0.821821
     22          6           0        3.375394    3.924702    0.781483
     23          1           0        3.381574    3.934966    1.876192
     24          1           0        2.324757    4.027544    0.486322
     25          6           0        4.147202    5.163616    0.283214
     26          1           0        4.023834    5.262484   -0.804682
     27          1           0        3.692751    6.053320    0.730060
     28          6           0        5.654049    5.065083    0.600016
     29          6           0        6.152134    3.752435   -0.067265
     30          1           0        5.884333    3.848812   -1.128486
     31          6           0        7.682243    3.841013    0.000000
     32          1           0        8.162105    3.226402   -0.766668
     33          1           0        8.053075    3.491761    0.972177
     34          6           0        7.965876    5.355915   -0.192735
     35          1           0        8.643908    5.729278    0.584239
     36          1           0        8.460361    5.544230   -1.150087
     37          6           0        6.588692    6.101230   -0.118076
     38          1           0        6.200693    6.199369   -1.144328
     39          6           0        5.901208    5.090826    2.125832
     40          1           0        5.432585    4.247988    2.640537
     41          1           0        6.968270    5.061818    2.366333
     42          1           0        5.493003    6.004895    2.569533
     43          6           0        6.721049    7.538921    0.448688
     44          1           0        7.173485    7.465117    1.449645
     45          6           0        5.371571    8.264967    0.590818
     46          1           0        4.841110    8.297841   -0.369317
     47          1           0        5.510635    9.296360    0.928159
     48          1           0        4.715729    7.779461    1.316774
     49          6           0        3.065404    1.409095    2.401293
     50          1           0        2.384277    2.206694    2.712325
     51          1           0        2.685022    0.477921    2.827863
     52          1           0        4.042373    1.595838    2.857782
     53          8           0        6.060595    1.511476   -1.682396
     54          8           0        6.797383    0.437193   -2.330980
     55          1           0        6.081736   -0.015950   -2.806852
     56          8           0        1.053821   -2.473226    0.274387
     57          1           0        0.884142   -2.565743    1.222445
     58          6           0        7.689628    8.372154   -0.427825
     59          1           0        8.603898    7.794287   -0.606725
     60          1           0        7.225026    8.518754   -1.413683
     61          6           0        8.105163    9.728905    0.166212
     62          1           0        7.242817   10.402119    0.231898
     63          1           0        8.440179    9.569404    1.201068
     64          6           0        9.244264   10.428392   -0.598542
     65          1           0       10.125109    9.770138   -0.592359
     66          1           0        9.537295   11.332037   -0.043539
     67          6           0        8.951205   10.834984   -2.058630
     68          1           0        8.673129    9.930563   -2.618435
     69          6           0        7.787825   11.833470   -2.167503
     70          1           0        8.006584   12.749148   -1.602656
     71          1           0        7.615397   12.120845   -3.210976
     72          1           0        6.850491   11.419942   -1.781429
     73          6           0       10.217596   11.409955   -2.713174
     74          1           0       10.544285   12.322520   -2.197951
     75          1           0       10.041308   11.667107   -3.763906
     76          1           0       11.046266   10.693404   -2.677673
 ---------------------------------------------------------------------

 SCF Done:  E(RHF) =  -1273.68346035     A.U. after    9 cycles

 Alpha  occ. eigenvalues --  -20.62351 -20.62025 -20.56070 -11.28472 -11.28240
 Alpha  occ. eigenvalues --  -11.24962 -11.24533 -11.23092 -11.22974 -11.22960
 Alpha  occ. eigenvalues --  -11.22918 -11.22679 -11.22678 -11.22410 -11.22274
 Alpha  occ. eigenvalues --  -11.22270 -11.22260 -11.21916 -11.21901 -11.21498
 Alpha  occ. eigenvalues --  -11.21443 -11.21386 -11.21308 -11.21207 -11.21140
 Alpha  occ. eigenvalues --  -11.21026 -11.20922 -11.20902 -11.20830 -11.20806
 Alpha  occ. eigenvalues --   -1.45659  -1.35448  -1.22097  -1.15602  -1.13932
 Alpha  occ. eigenvalues --   -1.09600  -1.07980  -1.05797  -1.05726  -1.03091
 Alpha  occ. eigenvalues --   -1.01576  -0.99450  -0.97981  -0.96352  -0.92946
 Alpha  occ. eigenvalues --   -0.92323  -0.92278  -0.90966  -0.90704  -0.86234
 Alpha  occ. eigenvalues --   -0.84022  -0.82693  -0.82488  -0.79222  -0.78267
 Alpha  occ. eigenvalues --   -0.77067  -0.74694  -0.73739  -0.72076  -0.70826
 Alpha  occ. eigenvalues --   -0.69098  -0.67123  -0.65646  -0.64621  -0.64444
 Alpha  occ. eigenvalues --   -0.63915  -0.63490  -0.62811  -0.61557  -0.61347
 Alpha  occ. eigenvalues --   -0.61215  -0.60052  -0.59373  -0.59060  -0.58365
 Alpha  occ. eigenvalues --   -0.57823  -0.57564  -0.56960  -0.56285  -0.55946
 Alpha  occ. eigenvalues --   -0.55615  -0.54701  -0.54400  -0.54030  -0.53807
 Alpha  occ. eigenvalues --   -0.53586  -0.53090  -0.52930  -0.52555  -0.51933
 Alpha  occ. eigenvalues --   -0.50636  -0.50171  -0.49816  -0.49607  -0.49036
 Alpha  occ. eigenvalues --   -0.48827  -0.48190  -0.47575  -0.47361  -0.46989
 Alpha  occ. eigenvalues --   -0.46703  -0.46141  -0.45507  -0.45153  -0.45072
 Alpha  occ. eigenvalues --   -0.44602  -0.44042  -0.43454  -0.43423  -0.43054
 Alpha  occ. eigenvalues --   -0.42867  -0.42441  -0.41696  -0.40217  -0.38872
 Alpha  occ. eigenvalues --   -0.34689
 Alpha virt. eigenvalues --    0.16025   0.20537   0.21378   0.21914   0.22262
 Alpha virt. eigenvalues --    0.22945   0.23176   0.24233   0.24345   0.24958
 Alpha virt. eigenvalues --    0.25643   0.26189   0.26471   0.26784   0.27231

 Mulliken charges:
               1
     1  C    0.194100
     2  H    0.172031
     3  C   -0.368748
     4  H    0.192267
     5  H    0.155650
     6  C    0.083576
     7  C   -0.044728
     8  C   -0.325401
     9  H    0.168073
    10  H    0.173705
    11  C   -0.341399
    12  H    0.145082
    13  H    0.184073
    14  C   -0.277335
    15  H    0.193450
    16  C    0.192040
    17  H    0.186620
    18  C   -0.209723
    19  H    0.171999
    20  C   -0.157546
    21  H    0.178075
    22  C   -0.329452
    23  H    0.164226
    24  H    0.165372
    25  C   -0.298339
    26  H    0.155314
    27  H    0.164165
    28  C   -0.030389
    29  C   -0.153038
    30  H    0.187058
    31  C   -0.325556
    32  H    0.188948
    33  H    0.151007
    34  C   -0.335865
    35  H    0.157944
    36  H    0.170882
    37  C   -0.136572
    38  H    0.154886
    39  C   -0.489923
    40  H    0.159333
    41  H    0.166118
    42  H    0.163361
    43  C   -0.148985
    44  H    0.151691
    45  C   -0.485622
    46  H    0.152848
    47  H    0.164091
    48  H    0.161168
    49  C   -0.482716
    50  H    0.168215
    51  H    0.162935
    52  H    0.169455
    53  O   -0.398329
    54  O   -0.464398
    55  H    0.459470
    56  O   -0.758793
    57  H    0.428764
    58  C   -0.312062
    59  H    0.165775
    60  H    0.151828
    61  C   -0.312829
    62  H    0.158368
    63  H    0.153848
    64  C   -0.298412
    65  H    0.151710
    66  H    0.150369
    67  C   -0.151963
    68  H    0.157796
    69  C   -0.476716
    70  H    0.151600
    71  H    0.158299
    72  H    0.161317
    73  C   -0.471898
    74  H    0.151851
    75  H    0.158022
    76  H    0.157967
 Sum of Mulliken charges =   0.00000

 Dipole moment (field-independent basis, Debye):
    X=             -1.3107    Y=              0.3383    Z=              2.1682  Tot=              2.5561
 Quadrupole moment (field-independent basis, Debye-Ang):
   XX=           -209.9219   YY=           -197.6178   ZZ=           -187.3759
   XY=             -6.5639   XZ=              9.2408   YZ=              1.3968

 ESP charges:
               1
     1  C    0.545274
     2  H    0.038766
     3  C   -0.478397
     4  H    0.142658
     5  H    0.126795
     6  C    0.205577
     7  C    0.273238
     8  C   -0.061522
     9  H    0.013981
    10  H    0.071545
    11  C   -0.350419
    12  H    0.087896
    13  H    0.093395
    14  C   -0.528165
    15  H    0.173760
    16  C    0.569802
    17  H    0.038314
    18  C   -0.612180
    19  H    0.149493
    20  C   -0.184973
    21  H    0.092964
    22  C    0.069307
    23  H    0.007033
    24  H   -0.004552
    25  C   -0.222506
    26  H    0.021025
    27  H    0.036252
    28  C    0.625442
    29  C    0.444019
    30  H   -0.053724
    31  C   -0.410697
    32  H    0.136868
    33  H    0.064344
    34  C   -0.034392
    35  H    0.044360
    36  H    0.038085
    37  C   -0.229565
    38  H    0.020537
    39  C   -0.665354
    40  H    0.145809
    41  H    0.143903
    42  H    0.139365
    43  C    0.125233
    44  H    0.015611
    45  C   -0.446919
    46  H    0.099968
    47  H    0.102475
    48  H    0.109337
    49  C   -0.386977
    50  H    0.091568
    51  H    0.092708
    52  H    0.105179
    53  O   -0.296629
    54  O   -0.473073
    55  H    0.444239
    56  O   -0.744544
    57  H    0.422328
    58  C   -0.025561
    59  H   -0.001433
    60  H    0.041252
    61  C    0.029814
    62  H    0.019287
    63  H    0.012574
    64  C   -0.322204
    65  H    0.070999
    66  H    0.066681
    67  C    0.548320
    68  H   -0.076543
    69  C   -0.496783
    70  H    0.111583
    71  H    0.103734
    72  H    0.109782
    73  C   -0.491132
    74  H    0.107902
    75  H    0.111366
    76  H    0.096492
 Sum of ESP charges =   0.00000

 Normal termination of Gaussian 09 at Wed Apr 26 14:04:57 2017.
