 Gaussian 09, Revision D.01,
 Gaussian 09:  EM64L-G09RevD.01 24-Apr-2013

 ----------------------------------------------------------------------
 #P HF/6-31G* SCF(Conver=6) NoSymm Test Pop=mk IOp(6/33=2) GFInput GFPr
 int
 ----------------------------------------------------------------------

 ----------------------------------------------
 MEP - Input generated by R.E.D.-III.x MOLECULE
 ----------------------------------------------
 Symbolic Z-matrix:
 Charge =  0 Multiplicity = 1

                          Input orientation:
 ---------------------------------------------------------------------
 Center     Atomic      Atomic             Coordinates (Angstroms)
 Number     Number       Type             X           Y           Z
 ---------------------------------------------------------------------
      1          6           0        1.758391   -1.248847    0.055464
      2          1           0        1.883270   -1.209190   -1.033604
      3          6           0        3.146715   -1.260610    0.714758
      4          1           0        3.726047   -2.109602    0.338739
      5          1           0        3.003238   -1.430079    1.793548
      6          6           0        3.905641    0.034168    0.489391
      7          6           0        3.173721    1.333093    0.849673
      8          6           0        1.744145    1.272840    0.227757
      9          1           0        1.839322    1.387165   -0.860641
     10          1           0        1.159206    2.129300    0.580031
     11          6           0        0.968414   -0.022543    0.512478
     12          1           0        0.753398   -0.114262    1.587428
     13          1           0        0.000000    0.000000    0.000000
     14          6           0        5.154816    0.000000    0.000000
     15          1           0        5.604995   -0.963041   -0.233702
     16          6           0        6.004260    1.209907   -0.262745
     17          1           0        7.037035    1.023368    0.057937
     18          6           0        5.465459    2.474383    0.430664
     19          1           0        5.702573    2.336155    1.494802
     20          6           0        3.926124    2.576196    0.256047
     21          1           0        3.748075    2.549183   -0.829038
     22          6           0        3.370944    3.927741    0.768363
     23          1           0        3.376464    3.943501    1.862911
     24          1           0        2.320258    4.025283    0.471723
     25          6           0        4.140598    5.165369    0.263013
     26          1           0        4.012479    5.260991   -0.824431
     27          1           0        3.693610    6.060112    0.711301
     28          6           0        5.645405    5.067694    0.580680
     29          6           0        6.153275    3.751010   -0.075176
     30          1           0        5.890260    3.836641   -1.137962
     31          6           0        7.686139    3.847973    0.000000
     32          1           0        8.170711    3.242233   -0.770830
     33          1           0        8.054035    3.489945    0.970113
     34          6           0        7.965967    5.368175   -0.174070
     35          1           0        8.608143    5.739026    0.631236
     36          1           0        8.494976    5.579779   -1.109598
     37          6           0        6.577439    6.082973   -0.166521
     38          1           0        6.216894    6.066226   -1.206093
     39          6           0        5.873192    5.087584    2.109576
     40          1           0        5.467900    4.198203    2.599422
     41          1           0        6.933838    5.141465    2.368583
     42          1           0        5.379842    5.953004    2.561874
     43          6           0        6.668046    7.599903    0.174255
     44          1           0        7.418628    7.967496   -0.541842
     45          6           0        7.197183    7.972696    1.573213
     46          1           0        6.432963    7.854191    2.347468
     47          1           0        7.516904    9.019625    1.592111
     48          1           0        8.063409    7.371375    1.863907
     49          6           0        3.065585    1.415646    2.397210
     50          1           0        2.385374    2.214760    2.706341
     51          1           0        2.684239    0.485922    2.826099
     52          1           0        4.042755    1.602439    2.853238
     53          8           0        6.063306    1.506516   -1.685444
     54          8           0        6.801356    0.430509   -2.329788
     55          1           0        6.086661   -0.024029   -2.805751
     56          8           0        1.053991   -2.472493    0.281469
     57          1           0        0.884330   -2.562133    1.229806
     58          6           0        5.349522    8.346302   -0.135520
     59          1           0        4.958421    7.988128   -1.098246
     60          1           0        4.601080    8.071247    0.618635
     61          6           0        5.428809    9.885869   -0.188996
     62          1           0        4.406841   10.261919   -0.324142
     63          1           0        5.764619   10.273983    0.780284
     64          6           0        6.323340   10.433348   -1.313476
     65          1           0        6.017165    9.968123   -2.262166
     66          1           0        7.360867   10.116768   -1.142677
     67          6           0        6.321892   11.969076   -1.504125
     68          1           0        7.021535   12.170018   -2.328965
     69          6           0        4.950656   12.515086   -1.935958
     70          1           0        4.203538   12.412971   -1.140508
     71          1           0        5.017414   13.580376   -2.184912
     72          1           0        4.572336   11.988764   -2.820220
     73          6           0        6.851578   12.719010   -0.270529
     74          1           0        6.173549   12.619311    0.584940
     75          1           0        6.957131   13.789510   -0.480555
     76          1           0        7.834198   12.340651    0.035174
 ---------------------------------------------------------------------

 SCF Done:  E(RHF) =  -1273.67626378     A.U. after    9 cycles

 Alpha  occ. eigenvalues --  -20.62332 -20.62004 -20.56058 -11.28451 -11.28226
 Alpha  occ. eigenvalues --  -11.24949 -11.24515 -11.23076 -11.22967 -11.22945
 Alpha  occ. eigenvalues --  -11.22904 -11.22665 -11.22610 -11.22486 -11.22391
 Alpha  occ. eigenvalues --  -11.22292 -11.22239 -11.21890 -11.21883 -11.21494
 Alpha  occ. eigenvalues --  -11.21439 -11.21394 -11.21354 -11.21275 -11.21046
 Alpha  occ. eigenvalues --  -11.20998 -11.20970 -11.20880 -11.20866 -11.20772
 Alpha  occ. eigenvalues --   -1.45636  -1.35435  -1.22073  -1.15568  -1.13874
 Alpha  occ. eigenvalues --   -1.09519  -1.07893  -1.05773  -1.05695  -1.03065
 Alpha  occ. eigenvalues --   -1.01567  -0.99215  -0.97934  -0.96297  -0.92602
 Alpha  occ. eigenvalues --   -0.92391  -0.92338  -0.91789  -0.90586  -0.86217
 Alpha  occ. eigenvalues --   -0.84617  -0.83160  -0.82614  -0.78633  -0.78422
 Alpha  occ. eigenvalues --   -0.76793  -0.74257  -0.73153  -0.71857  -0.70742
 Alpha  occ. eigenvalues --   -0.69013  -0.67085  -0.65245  -0.64677  -0.64349
 Alpha  occ. eigenvalues --   -0.63772  -0.63087  -0.62908  -0.62621  -0.61472
 Alpha  occ. eigenvalues --   -0.61123  -0.59779  -0.59355  -0.59068  -0.58825
 Alpha  occ. eigenvalues --   -0.58053  -0.57696  -0.57306  -0.56142  -0.55844
 Alpha  occ. eigenvalues --   -0.55339  -0.55008  -0.54313  -0.54072  -0.53849
 Alpha  occ. eigenvalues --   -0.53473  -0.53135  -0.52202  -0.52110  -0.51778
 Alpha  occ. eigenvalues --   -0.51114  -0.50526  -0.49912  -0.49707  -0.49403
 Alpha  occ. eigenvalues --   -0.48959  -0.48149  -0.47973  -0.47358  -0.46902
 Alpha  occ. eigenvalues --   -0.46404  -0.46049  -0.45332  -0.45229  -0.44974
 Alpha  occ. eigenvalues --   -0.44601  -0.44293  -0.43514  -0.43043  -0.42840
 Alpha  occ. eigenvalues --   -0.42676  -0.42298  -0.41439  -0.40148  -0.38793
 Alpha  occ. eigenvalues --   -0.34670
 Alpha virt. eigenvalues --    0.16044   0.20163   0.21136   0.21694   0.22237
 Alpha virt. eigenvalues --    0.22687   0.23209   0.24113   0.24396   0.24803
 Alpha virt. eigenvalues --    0.25525   0.26027   0.26459   0.26730   0.27107

 Mulliken charges:
               1
     1  C    0.194099
     2  H    0.172012
     3  C   -0.368752
     4  H    0.192232
     5  H    0.155646
     6  C    0.083561
     7  C   -0.044816
     8  C   -0.325415
     9  H    0.168019
    10  H    0.173719
    11  C   -0.341381
    12  H    0.145078
    13  H    0.184009
    14  C   -0.277434
    15  H    0.193401
    16  C    0.192821
    17  H    0.186752
    18  C   -0.209905
    19  H    0.171853
    20  C   -0.157388
    21  H    0.177854
    22  C   -0.329956
    23  H    0.165125
    24  H    0.165203
    25  C   -0.298897
    26  H    0.155178
    27  H    0.162177
    28  C   -0.023719
    29  C   -0.156069
    30  H    0.187820
    31  C   -0.325627
    32  H    0.188502
    33  H    0.151242
    34  C   -0.328569
    35  H    0.158882
    36  H    0.167036
    37  C   -0.152910
    38  H    0.156426
    39  C   -0.486179
    40  H    0.158124
    41  H    0.166979
    42  H    0.160987
    43  C   -0.142225
    44  H    0.158335
    45  C   -0.486209
    46  H    0.155301
    47  H    0.161352
    48  H    0.161018
    49  C   -0.482485
    50  H    0.168218
    51  H    0.162817
    52  H    0.169473
    53  O   -0.398491
    54  O   -0.464416
    55  H    0.459415
    56  O   -0.758823
    57  H    0.428750
    58  C   -0.306721
    59  H    0.152662
    60  H    0.153870
    61  C   -0.317636
    62  H    0.159044
    63  H    0.159385
    64  C   -0.305775
    65  H    0.150725
    66  H    0.156062
    67  C   -0.145595
    68  H    0.155527
    69  C   -0.476392
    70  H    0.155540
    71  H    0.158265
    72  H    0.156960
    73  C   -0.476857
    74  H    0.156291
    75  H    0.158487
    76  H    0.156407
 Sum of Mulliken charges =   0.00000

 Dipole moment (field-independent basis, Debye):
    X=             -1.2815    Y=              0.5058    Z=              2.0143  Tot=              2.4404
 Quadrupole moment (field-independent basis, Debye-Ang):
   XX=           -209.0017   YY=           -194.9586   ZZ=           -187.5446
   XY=             -4.5442   XZ=              7.5128   YZ=             -0.4332

 ESP charges:
               1
     1  C    0.541404
     2  H    0.039955
     3  C   -0.480861
     4  H    0.143789
     5  H    0.127987
     6  C    0.208183
     7  C    0.261374
     8  C   -0.056923
     9  H    0.013350
    10  H    0.069675
    11  C   -0.347664
    12  H    0.087889
    13  H    0.092790
    14  C   -0.528230
    15  H    0.171860
    16  C    0.597062
    17  H    0.027245
    18  C   -0.626830
    19  H    0.153341
    20  C   -0.196206
    21  H    0.098843
    22  C    0.088500
    23  H    0.003930
    24  H   -0.004573
    25  C   -0.236367
    26  H    0.014694
    27  H    0.024723
    28  C    0.703710
    29  C    0.335808
    30  H   -0.039746
    31  C   -0.198027
    32  H    0.096288
    33  H    0.021907
    34  C   -0.238051
    35  H    0.076129
    36  H    0.066928
    37  C   -0.167566
    38  H   -0.008490
    39  C   -0.702464
    40  H    0.148545
    41  H    0.159069
    42  H    0.139585
    43  C    0.421552
    44  H   -0.032146
    45  C   -0.551947
    46  H    0.118980
    47  H    0.135124
    48  H    0.112263
    49  C   -0.381264
    50  H    0.090885
    51  H    0.091596
    52  H    0.105500
    53  O   -0.298459
    54  O   -0.472202
    55  H    0.442946
    56  O   -0.743598
    57  H    0.422331
    58  C   -0.308321
    59  H    0.048961
    60  H    0.042618
    61  C    0.205743
    62  H   -0.014925
    63  H   -0.030845
    64  C   -0.269549
    65  H    0.045027
    66  H    0.040605
    67  C    0.443463
    68  H   -0.056096
    69  C   -0.425611
    70  H    0.094669
    71  H    0.091350
    72  H    0.091316
    73  C   -0.399426
    74  H    0.086806
    75  H    0.087345
    76  H    0.082746
 Sum of ESP charges =   0.00000

 Normal termination of Gaussian 09 at Wed Apr 26 13:51:12 2017.
