 Gaussian 09, Revision D.01,
 Gaussian 09:  EM64L-G09RevD.01 24-Apr-2013

 ----------------------------------------------------------------------
 #P HF/6-31G* SCF(Conver=6) NoSymm Test Pop=mk IOp(6/33=2) GFInput GFPr
 int
 ----------------------------------------------------------------------

 ----------------------------------------------
 MEP - Input generated by R.E.D.-III.x MOLECULE
 ----------------------------------------------
 Symbolic Z-matrix:
 Charge =  0 Multiplicity = 1

                          Input orientation:
 ---------------------------------------------------------------------
 Center     Atomic      Atomic             Coordinates (Angstroms)
 Number     Number       Type             X           Y           Z
 ---------------------------------------------------------------------
      1          6           0        7.516748    2.150557   -0.057022
      2          1           0        7.415576    2.067190    1.032037
      3          6           0        6.763009    0.984975   -0.716884
      4          1           0        7.154093    0.033972   -0.342130
      5          1           0        6.982516    1.012776   -1.795809
      6          6           0        5.264428    1.062571   -0.489825
      7          6           0        4.581212    2.388270   -0.848553
      8          6           0        5.418050    3.549008   -0.226702
      9          1           0        5.271168    3.531927    0.861826
     10          1           0        5.023959    4.508624   -0.578264
     11          6           0        6.926357    3.484913   -0.512665
     12          1           0        7.120477    3.614801   -1.587656
     13          1           0        7.440318    4.305873    0.000000
     14          6           0        4.607056    0.000000    0.000000
     15          1           0        5.164473   -0.905527    0.232376
     16          6           0        3.129813   -0.044354    0.265119
     17          1           0        2.717427   -1.009900   -0.054136
     18          6           0        2.369022    1.100261   -0.428315
     19          1           0        2.354309    0.825906   -1.492342
     20          6           0        3.129628    2.442533   -0.253709
     21          1           0        3.250949    2.576049    0.831289
     22          6           0        2.305444    3.649661   -0.764922
     23          1           0        2.288400    3.654401   -1.859412
     24          1           0        2.801873    4.580674   -0.467964
     25          6           0        0.848968    3.686295   -0.258576
     26          1           0        0.840252    3.844537    0.829071
     27          1           0        0.345736    4.551410   -0.705652
     28          6           0        0.104312    2.375589   -0.577691
     29          6           0        0.924307    1.226784    0.077398
     30          1           0        0.996938    1.492155    1.140534
     31          6           0        0.000000    0.000000    0.000000
     32          1           0        0.237178   -0.737507    0.771837
     33          1           0        0.099342   -0.504716   -0.969537
     34          6           0       -1.424501    0.602292    0.169887
     35          1           0       -2.083809    0.273017   -0.639617
     36          1           0       -1.896637    0.274058    1.102163
     37          6           0       -1.256097    2.154696    0.168282
     38          1           0       -1.043180    2.441640    1.209124
     39          6           0       -0.035722    2.197212   -2.107038
     40          1           0        0.930654    2.045747   -2.595189
     41          1           0       -0.664551    1.341880   -2.367478
     42          1           0       -0.485219    3.085873   -2.559915
     43          6           0       -2.568904    2.919533   -0.170498
     44          1           0       -3.296301    2.502606    0.545677
     45          6           0       -3.171438    2.687526   -1.570822
     46          1           0       -2.647477    3.259385   -2.342795
     47          1           0       -4.219970    3.001185   -1.589672
     48          1           0       -3.149593    1.633917   -1.863766
     49          6           0        4.570208    2.525235   -2.395976
     50          1           0        4.276737    3.533142   -2.703913
     51          1           0        5.555948    2.332662   -2.826033
     52          1           0        3.876125    1.812435   -2.851922
     53          8           0        2.851433    0.070987    1.688011
     54          8           0        3.348087   -1.134716    2.333813
     55          1           0        4.122666   -0.785671    2.805171
     56          8           0        8.926013    2.066578   -0.283821
     57          1           0        9.093773    2.160059   -1.232127
     58          6           0       -2.471681    4.428762    0.149713
     59          1           0       -1.937001    4.554516    1.101956
     60          1           0       -1.856217    4.921803   -0.613280
     61          6           0       -3.827767    5.146113    0.259452
     62          1           0       -4.331217    5.155850   -0.714666
     63          1           0       -4.478583    4.563768    0.927267
     64          6           0       -3.742887    6.580627    0.812378
     65          1           0       -3.306043    6.540161    1.820752
     66          1           0       -4.764192    6.969285    0.939976
     67          6           0       -2.941320    7.600963   -0.023737
     68          1           0       -1.915148    7.222579   -0.136612
     69          6           0       -3.528857    7.798179   -1.430204
     70          1           0       -4.565545    8.154859   -1.372549
     71          1           0       -2.953574    8.541459   -1.993970
     72          1           0       -3.528159    6.870881   -2.012260
     73          6           0       -2.856707    8.944579    0.718104
     74          1           0       -3.855660    9.377308    0.858431
     75          1           0       -2.255854    9.671252    0.159323
     76          1           0       -2.403768    8.825962    1.709165
 ---------------------------------------------------------------------

 SCF Done:  E(RHF) =  -1273.67834393     A.U. after    9 cycles

 Alpha  occ. eigenvalues --  -20.62349 -20.62022 -20.56073 -11.28472 -11.28243
 Alpha  occ. eigenvalues --  -11.24974 -11.24539 -11.23093 -11.22997 -11.22967
 Alpha  occ. eigenvalues --  -11.22933 -11.22682 -11.22647 -11.22432 -11.22427
 Alpha  occ. eigenvalues --  -11.22411 -11.22261 -11.21920 -11.21919 -11.21546
 Alpha  occ. eigenvalues --  -11.21530 -11.21470 -11.21329 -11.21309 -11.21085
 Alpha  occ. eigenvalues --  -11.21072 -11.21050 -11.20917 -11.20905 -11.20806
 Alpha  occ. eigenvalues --   -1.45658  -1.35450  -1.22091  -1.15599  -1.13911
 Alpha  occ. eigenvalues --   -1.09627  -1.07990  -1.05808  -1.05756  -1.03097
 Alpha  occ. eigenvalues --   -1.01615  -0.99441  -0.97960  -0.96346  -0.92644
 Alpha  occ. eigenvalues --   -0.92454  -0.92389  -0.91796  -0.90458  -0.86239
 Alpha  occ. eigenvalues --   -0.83974  -0.82987  -0.82614  -0.79118  -0.78443
 Alpha  occ. eigenvalues --   -0.76998  -0.74462  -0.73664  -0.71919  -0.70764
 Alpha  occ. eigenvalues --   -0.69033  -0.67102  -0.65222  -0.64667  -0.64456
 Alpha  occ. eigenvalues --   -0.63952  -0.63755  -0.62847  -0.62240  -0.61247
 Alpha  occ. eigenvalues --   -0.60910  -0.60143  -0.59640  -0.59055  -0.58113
 Alpha  occ. eigenvalues --   -0.58012  -0.57700  -0.57207  -0.56267  -0.55886
 Alpha  occ. eigenvalues --   -0.55324  -0.55055  -0.54407  -0.54223  -0.53867
 Alpha  occ. eigenvalues --   -0.53369  -0.53127  -0.52992  -0.52135  -0.51215
 Alpha  occ. eigenvalues --   -0.50870  -0.50545  -0.49852  -0.49671  -0.49183
 Alpha  occ. eigenvalues --   -0.48984  -0.48280  -0.48077  -0.47320  -0.47115
 Alpha  occ. eigenvalues --   -0.46693  -0.46214  -0.45749  -0.45270  -0.45055
 Alpha  occ. eigenvalues --   -0.44387  -0.44222  -0.43721  -0.43074  -0.42943
 Alpha  occ. eigenvalues --   -0.42730  -0.42249  -0.41551  -0.40194  -0.38887
 Alpha  occ. eigenvalues --   -0.34693
 Alpha virt. eigenvalues --    0.16020   0.20117   0.21144   0.21800   0.22312
 Alpha virt. eigenvalues --    0.22733   0.23159   0.23720   0.24319   0.24682
 Alpha virt. eigenvalues --    0.25316   0.26066   0.26531   0.27082   0.27097

 Mulliken charges:
               1
     1  C    0.194124
     2  H    0.172004
     3  C   -0.368772
     4  H    0.192279
     5  H    0.155694
     6  C    0.083614
     7  C   -0.044828
     8  C   -0.325409
     9  H    0.168030
    10  H    0.173701
    11  C   -0.341412
    12  H    0.145107
    13  H    0.184071
    14  C   -0.277743
    15  H    0.193504
    16  C    0.192982
    17  H    0.186754
    18  C   -0.210071
    19  H    0.171927
    20  C   -0.157394
    21  H    0.178011
    22  C   -0.330054
    23  H    0.165314
    24  H    0.165282
    25  C   -0.298461
    26  H    0.155181
    27  H    0.161327
    28  C   -0.023883
    29  C   -0.156100
    30  H    0.187997
    31  C   -0.325661
    32  H    0.188477
    33  H    0.151425
    34  C   -0.328546
    35  H    0.159101
    36  H    0.167307
    37  C   -0.154826
    38  H    0.156532
    39  C   -0.486448
    40  H    0.158350
    41  H    0.167187
    42  H    0.160914
    43  C   -0.135959
    44  H    0.152651
    45  C   -0.486363
    46  H    0.154496
    47  H    0.163316
    48  H    0.161324
    49  C   -0.482541
    50  H    0.168220
    51  H    0.162917
    52  H    0.169478
    53  O   -0.398515
    54  O   -0.464257
    55  H    0.459412
    56  O   -0.758800
    57  H    0.428772
    58  C   -0.308538
    59  H    0.153053
    60  H    0.154814
    61  C   -0.313816
    62  H    0.159494
    63  H    0.155006
    64  C   -0.297825
    65  H    0.151821
    66  H    0.150986
    67  C   -0.151888
    68  H    0.155365
    69  C   -0.476810
    70  H    0.152569
    71  H    0.157692
    72  H    0.161128
    73  C   -0.471773
    74  H    0.152576
    75  H    0.157492
    76  H    0.157916
 Sum of Mulliken charges =   0.00000

 Dipole moment (field-independent basis, Debye):
    X=              0.3606    Y=              1.2856    Z=             -2.0640  Tot=              2.4583
 Quadrupole moment (field-independent basis, Debye-Ang):
   XX=           -199.1688   YY=           -190.1667   ZZ=           -187.8522
   XY=              3.3391   XZ=            -10.9051   YZ=             -2.3804

 ESP charges:
               1
     1  C    0.540443
     2  H    0.043293
     3  C   -0.500706
     4  H    0.152062
     5  H    0.135458
     6  C    0.162744
     7  C    0.289949
     8  C   -0.016298
     9  H    0.002013
    10  H    0.052780
    11  C   -0.346979
    12  H    0.083317
    13  H    0.091385
    14  C   -0.484561
    15  H    0.166093
    16  C    0.541469
    17  H    0.035467
    18  C   -0.553436
    19  H    0.138557
    20  C   -0.218732
    21  H    0.099845
    22  C    0.095461
    23  H    0.004615
    24  H   -0.004645
    25  C   -0.254341
    26  H    0.023630
    27  H    0.033135
    28  C    0.624778
    29  C    0.344584
    30  H   -0.046589
    31  C   -0.265115
    32  H    0.108599
    33  H    0.038251
    34  C   -0.187925
    35  H    0.070723
    36  H    0.053586
    37  C   -0.062268
    38  H   -0.011310
    39  C   -0.652307
    40  H    0.137995
    41  H    0.145554
    42  H    0.130889
    43  C    0.166919
    44  H   -0.003861
    45  C   -0.411109
    46  H    0.089564
    47  H    0.089106
    48  H    0.095091
    49  C   -0.380133
    50  H    0.087113
    51  H    0.091704
    52  H    0.105627
    53  O   -0.291389
    54  O   -0.470213
    55  H    0.441791
    56  O   -0.745775
    57  H    0.424733
    58  C   -0.050209
    59  H   -0.012305
    60  H    0.017191
    61  C    0.063269
    62  H    0.008497
    63  H    0.004047
    64  C   -0.334956
    65  H    0.077040
    66  H    0.065954
    67  C    0.543797
    68  H   -0.077571
    69  C   -0.443707
    70  H    0.099267
    71  H    0.088384
    72  H    0.097078
    73  C   -0.492367
    74  H    0.109312
    75  H    0.110097
    76  H    0.096553
 Sum of ESP charges =   0.00000

 Normal termination of Gaussian 09 at Wed Apr 26 13:47:45 2017.
