 Gaussian 09, Revision D.01,
 Gaussian 09:  EM64L-G09RevD.01 24-Apr-2013

 ----------------------------------------------------------------------
 #P HF/6-31G* SCF(Conver=6) NoSymm Test Pop=mk IOp(6/33=2) GFInput GFPr
 int
 ----------------------------------------------------------------------

 ----------------------------------------------
 MEP - Input generated by R.E.D.-III.x MOLECULE
 ----------------------------------------------
 Symbolic Z-matrix:
 Charge =  0 Multiplicity = 1

                          Input orientation:
 ---------------------------------------------------------------------
 Center     Atomic      Atomic             Coordinates (Angstroms)
 Number     Number       Type             X           Y           Z
 ---------------------------------------------------------------------
      1          6           0        1.014267   -0.882331   -1.687415
      2          1           0        1.145107    0.088303   -2.181369
      3          6           0        2.249874   -1.752692   -1.966820
      4          1           0        2.388473   -1.859829   -3.047150
      5          1           0        2.044471   -2.760863   -1.573812
      6          6           0        3.507980   -1.193301   -1.328527
      7          6           0        3.433864   -0.866273    0.168180
      8          6           0        2.129131   -0.049638    0.422468
      9          1           0        2.266259    0.955084    0.000000
     10          1           0        1.989092    0.083314    1.500688
     11          6           0        0.855687   -0.659642   -0.183365
     12          1           0        0.621500   -1.620158    0.299042
     13          1           0        0.000000    0.000000    0.000000
     14          6           0        4.610545   -1.011327   -2.071735
     15          1           0        4.583130   -1.265807   -3.129654
     16          6           0        5.911092   -0.467807   -1.554318
     17          1           0        6.751607   -1.030602   -1.979819
     18          6           0        5.994190   -0.491377   -0.017237
     19          1           0        6.146451   -1.548195    0.243422
     20          6           0        4.663351    0.005329    0.606558
     21          1           0        4.492271    1.006361    0.184131
     22          6           0        4.774658    0.177059    2.140171
     23          1           0        4.785563   -0.803927    2.626055
     24          1           0        3.880580    0.687963    2.515840
     25          6           0        6.018509    0.960512    2.607064
     26          1           0        5.951353    2.001149    2.259035
     27          1           0        6.010931    0.996854    3.700929
     28          6           0        7.322362    0.342629    2.060665
     29          6           0        7.181004    0.327729    0.512869
     30          1           0        6.985276    1.371446    0.230802
     31          6           0        8.589310    0.000000    0.000000
     32          1           0        8.744357    0.350558   -1.024151
     33          1           0        8.764458   -1.083451    0.000048
     34          6           0        9.520078    0.715182    1.017298
     35          1           0       10.295580    0.033262    1.386467
     36          1           0       10.043567    1.552283    0.546481
     37          6           0        8.621336    1.211977    2.201937
     38          1           0        8.317962    2.248549    1.985285
     39          6           0        7.556002   -1.066443    2.652397
     40          1           0        6.760650   -1.768630    2.389052
     41          1           0        8.497975   -1.502892    2.306746
     42          1           0        7.598843   -1.025771    3.745767
     43          6           0        9.379357    1.241937    3.554627
     44          1           0        9.750486    0.224810    3.753385
     45          6           0        8.489563    1.665054    4.737464
     46          1           0        7.997268    2.623735    4.531704
     47          1           0        9.076561    1.785570    5.653020
     48          1           0        7.710826    0.930231    4.954283
     49          6           0        3.372383   -2.204629    0.954615
     50          1           0        3.119365   -2.037154    2.005689
     51          1           0        2.616240   -2.879280    0.546151
     52          1           0        4.329964   -2.732836    0.912905
     53          8           0        6.096029    0.916588   -1.959960
     54          8           0        6.272322    0.933375   -3.404318
     55          1           0        5.428779    1.322887   -3.688362
     56          8           0       -0.163322   -1.424717   -2.290355
     57          1           0       -0.356408   -2.279429   -1.880057
     58          6           0       10.617812    2.170405    3.461408
     59          1           0       11.119259    2.009129    2.502442
     60          1           0       10.273218    3.216274    3.451889
     61          6           0       11.650536    1.984928    4.585399
     62          1           0       11.162872    2.088456    5.562238
     63          1           0       12.034720    0.956246    4.552374
     64          6           0       12.821214    2.985133    4.545385
     65          1           0       13.446759    2.827350    5.436629
     66          1           0       12.413021    4.001919    4.639264
     67          6           0       13.737423    2.941725    3.303718
     68          1           0       13.119938    3.120558    2.411952
     69          6           0       14.778355    4.070583    3.374757
     70          1           0       15.433109    3.944507    4.246741
     71          1           0       15.413633    4.083429    2.481744
     72          1           0       14.298022    5.052241    3.458914
     73          6           0       14.430050    1.580432    3.132989
     74          1           0       15.044493    1.343476    4.011454
     75          1           0       15.089895    1.584160    2.257949
     76          1           0       13.711814    0.764978    2.999516
 ---------------------------------------------------------------------

 SCF Done:  E(RHF) =  -1273.68309196     A.U. after    9 cycles

 Alpha  occ. eigenvalues --  -20.62353 -20.62027 -20.56071 -11.28475 -11.28242
 Alpha  occ. eigenvalues --  -11.24964 -11.24536 -11.23093 -11.22976 -11.22961
 Alpha  occ. eigenvalues --  -11.22920 -11.22679 -11.22678 -11.22411 -11.22275
 Alpha  occ. eigenvalues --  -11.22271 -11.22260 -11.21930 -11.21899 -11.21493
 Alpha  occ. eigenvalues --  -11.21442 -11.21386 -11.21314 -11.21183 -11.21171
 Alpha  occ. eigenvalues --  -11.21028 -11.20913 -11.20902 -11.20848 -11.20802
 Alpha  occ. eigenvalues --   -1.45662  -1.35450  -1.22099  -1.15606  -1.13938
 Alpha  occ. eigenvalues --   -1.09582  -1.07978  -1.05797  -1.05728  -1.03095
 Alpha  occ. eigenvalues --   -1.01581  -0.99449  -0.97984  -0.96355  -0.92940
 Alpha  occ. eigenvalues --   -0.92327  -0.92272  -0.90978  -0.90722  -0.86235
 Alpha  occ. eigenvalues --   -0.83991  -0.82701  -0.82453  -0.79260  -0.78263
 Alpha  occ. eigenvalues --   -0.77065  -0.74661  -0.73865  -0.72065  -0.70827
 Alpha  occ. eigenvalues --   -0.69095  -0.67122  -0.65560  -0.64465  -0.64383
 Alpha  occ. eigenvalues --   -0.63908  -0.63261  -0.62885  -0.62699  -0.61391
 Alpha  occ. eigenvalues --   -0.60627  -0.60114  -0.59178  -0.58969  -0.58323
 Alpha  occ. eigenvalues --   -0.57789  -0.57459  -0.57272  -0.56365  -0.55827
 Alpha  occ. eigenvalues --   -0.55606  -0.54712  -0.54411  -0.54114  -0.53678
 Alpha  occ. eigenvalues --   -0.53545  -0.53024  -0.52939  -0.52567  -0.51930
 Alpha  occ. eigenvalues --   -0.50959  -0.50314  -0.49662  -0.49570  -0.49037
 Alpha  occ. eigenvalues --   -0.48726  -0.48161  -0.47590  -0.47184  -0.47020
 Alpha  occ. eigenvalues --   -0.46608  -0.46272  -0.45439  -0.45173  -0.45070
 Alpha  occ. eigenvalues --   -0.44510  -0.44187  -0.43779  -0.43411  -0.43007
 Alpha  occ. eigenvalues --   -0.42842  -0.42363  -0.41634  -0.40218  -0.38873
 Alpha  occ. eigenvalues --   -0.34692
 Alpha virt. eigenvalues --    0.16023   0.20506   0.21333   0.21825   0.22241
 Alpha virt. eigenvalues --    0.22916   0.23262   0.24241   0.24325   0.24866
 Alpha virt. eigenvalues --    0.25480   0.26146   0.26666   0.26751   0.27018

 Mulliken charges:
               1
     1  C    0.194105
     2  H    0.172013
     3  C   -0.368747
     4  H    0.192279
     5  H    0.155664
     6  C    0.083597
     7  C   -0.044732
     8  C   -0.325396
     9  H    0.168064
    10  H    0.173727
    11  C   -0.341434
    12  H    0.145115
    13  H    0.184077
    14  C   -0.277431
    15  H    0.193497
    16  C    0.192074
    17  H    0.186551
    18  C   -0.209788
    19  H    0.171983
    20  C   -0.157472
    21  H    0.178081
    22  C   -0.329536
    23  H    0.164244
    24  H    0.165358
    25  C   -0.298237
    26  H    0.155219
    27  H    0.164439
    28  C   -0.030342
    29  C   -0.153027
    30  H    0.187177
    31  C   -0.325273
    32  H    0.188923
    33  H    0.151144
    34  C   -0.336578
    35  H    0.157612
    36  H    0.170476
    37  C   -0.136928
    38  H    0.155177
    39  C   -0.490080
    40  H    0.159392
    41  H    0.166026
    42  H    0.163440
    43  C   -0.147339
    44  H    0.152017
    45  C   -0.485241
    46  H    0.154018
    47  H    0.162727
    48  H    0.160717
    49  C   -0.482772
    50  H    0.168234
    51  H    0.162943
    52  H    0.169454
    53  O   -0.398340
    54  O   -0.464360
    55  H    0.459471
    56  O   -0.758788
    57  H    0.428772
    58  C   -0.315186
    59  H    0.172528
    60  H    0.147851
    61  C   -0.312966
    62  H    0.157827
    63  H    0.153489
    64  C   -0.296930
    65  H    0.150366
    66  H    0.151963
    67  C   -0.153223
    68  H    0.157161
    69  C   -0.471624
    70  H    0.151834
    71  H    0.158270
    72  H    0.157768
    73  C   -0.476250
    74  H    0.151679
    75  H    0.158604
    76  H    0.160871
 Sum of Mulliken charges =   0.00000

 Dipole moment (field-independent basis, Debye):
    X=             -1.0493    Y=             -1.5160    Z=              1.7723  Tot=              2.5574
 Quadrupole moment (field-independent basis, Debye-Ang):
   XX=           -213.4197   YY=           -186.5084   ZZ=           -195.2313
   XY=             -6.9775   XZ=              4.8467   YZ=             -0.7950

 ESP charges:
               1
     1  C    0.559359
     2  H    0.037706
     3  C   -0.527686
     4  H    0.156908
     5  H    0.138338
     6  C    0.242065
     7  C    0.207785
     8  C   -0.020591
     9  H    0.010381
    10  H    0.065114
    11  C   -0.356886
    12  H    0.088249
    13  H    0.092909
    14  C   -0.535497
    15  H    0.172734
    16  C    0.580327
    17  H    0.032565
    18  C   -0.512016
    19  H    0.134693
    20  C   -0.266981
    21  H    0.113807
    22  C    0.125383
    23  H    0.000964
    24  H   -0.007433
    25  C   -0.255241
    26  H    0.027533
    27  H    0.033459
    28  C    0.658046
    29  C    0.275645
    30  H   -0.016216
    31  C   -0.333333
    32  H    0.124850
    33  H    0.059039
    34  C   -0.126550
    35  H    0.057521
    36  H    0.061581
    37  C   -0.142421
    38  H   -0.008683
    39  C   -0.640638
    40  H    0.144015
    41  H    0.136237
    42  H    0.124740
    43  C    0.223657
    44  H   -0.016587
    45  C   -0.467571
    46  H    0.100014
    47  H    0.109296
    48  H    0.104723
    49  C   -0.388675
    50  H    0.096124
    51  H    0.098513
    52  H    0.110950
    53  O   -0.301904
    54  O   -0.472401
    55  H    0.446449
    56  O   -0.747728
    57  H    0.424385
    58  C   -0.059163
    59  H    0.002865
    60  H    0.033080
    61  C   -0.033149
    62  H    0.036170
    63  H    0.011112
    64  C   -0.236160
    65  H    0.053299
    66  H    0.052214
    67  C    0.468476
    68  H   -0.055517
    69  C   -0.475272
    70  H    0.104074
    71  H    0.110460
    72  H    0.093894
    73  C   -0.386323
    74  H    0.089031
    75  H    0.077252
    76  H    0.082633
 Sum of ESP charges =   0.00000

 Normal termination of Gaussian 09 at Wed Apr 26 14:49:07 2017.
