 Gaussian 09, Revision D.01,
 Gaussian 09:  EM64L-G09RevD.01 24-Apr-2013

 ----------------------------------------------------------------------
 #P HF/6-31G* SCF(Conver=6) NoSymm Test Pop=mk IOp(6/33=2) GFInput GFPr
 int
 ----------------------------------------------------------------------

 ----------------------------------------------
 MEP - Input generated by R.E.D.-III.x MOLECULE
 ----------------------------------------------
 Symbolic Z-matrix:
 Charge =  0 Multiplicity = 1

                          Input orientation:
 ---------------------------------------------------------------------
 Center     Atomic      Atomic             Coordinates (Angstroms)
 Number     Number       Type             X           Y           Z
 ---------------------------------------------------------------------
      1          6           0       -0.965450    2.006449    1.684405
      2          1           0       -0.979752    1.028550    2.181120
      3          6           0        0.385860    2.684622    1.960831
      4          1           0        0.540063    2.772331    3.040798
      5          1           0        0.331707    3.711322    1.565851
      6          6           0        1.546608    1.943614    1.323054
      7          6           0        1.423712    1.628396   -0.173010
      8          6           0        0.012295    1.013139   -0.424425
      9          1           0        0.000000    0.000000    0.000000
     10          1           0       -0.147141    0.900221   -1.502231
     11          6           0       -1.156616    1.805705    0.181050
     12          1           0       -1.247325    2.789095   -0.303587
     13          1           0       -2.100396    1.278964    0.000000
     14          6           0        2.610346    1.601786    2.066456
     15          1           0        2.621393    1.859607    3.123867
     16          6           0        3.815615    0.870644    1.549839
     17          1           0        4.730732    1.303518    1.973407
     18          6           0        3.900472    0.878498    0.012866
     19          1           0        4.207977    1.900581   -0.249785
     20          6           0        2.510320    0.583574   -0.610638
     21          1           0        2.192914   -0.380340   -0.186440
     22          6           0        2.593904    0.394782   -2.144216
     23          1           0        2.749269    1.362740   -2.631345
     24          1           0        1.633678    0.021324   -2.518426
     25          6           0        3.708085   -0.564757   -2.610565
     26          1           0        3.486713   -1.584002   -2.263188
     27          1           0        3.697384   -0.598777   -3.704751
     28          6           0        5.088189   -0.146418   -2.063472
     29          6           0        4.951236   -0.109618   -0.515783
     30          1           0        4.599032   -1.111519   -0.234413
     31          6           0        6.393205    0.000000    0.000000
     32          1           0        6.492717   -0.388373    1.017363
     33          1           0        6.724469    1.046200    0.020858
     34          6           0        7.214015   -0.821553   -1.032859
     35          1           0        8.055875   -0.232941   -1.416301
     36          1           0        7.647640   -1.717757   -0.578357
     37          6           0        6.241814   -1.200303   -2.198771
     38          1           0        5.785066   -2.171314   -1.957565
     39          6           0        5.527255    1.209685   -2.660580
     40          1           0        4.844030    2.022517   -2.401092
     41          1           0        6.523245    1.504615   -2.316704
     42          1           0        5.562393    1.156972   -3.754051
     43          6           0        6.975322   -1.359490   -3.553530
     44          1           0        7.437655   -0.390330   -3.791768
     45          6           0        6.043774   -1.720520   -4.726160
     46          1           0        5.415497   -2.588673   -4.497532
     47          1           0        6.630458   -1.962245   -5.620431
     48          1           0        5.378210   -0.894447   -4.989527
     49          6           0        1.560058    2.959825   -0.961712
     50          1           0        1.282714    2.830267   -2.012002
     51          1           0        0.913447    3.739954   -0.553022
     52          1           0        2.585600    3.340006   -0.922788
     53          8           0        3.793751   -0.524843    1.959168
     54          8           0        3.972126   -0.563412    3.402918
     55          1           0        3.081971   -0.824455    3.691719
     56          8           0       -2.049024    2.719221    2.286322
     57          1           0       -2.113224    3.592166    1.874001
     58          6           0        8.151881   -2.368611   -3.468360
     59          1           0        8.672054   -2.352813   -4.436957
     60          1           0        8.884034   -2.012423   -2.732931
     61          6           0        7.788901   -3.825436   -3.134722
     62          1           0        7.300716   -3.868594   -2.153513
     63          1           0        7.057574   -4.199117   -3.861534
     64          6           0        9.026614   -4.737890   -3.133898
     65          1           0        9.760081   -4.334342   -2.420725
     66          1           0        9.504580   -4.680988   -4.122731
     67          6           0        8.789849   -6.227959   -2.794273
     68          1           0        9.777118   -6.710068   -2.851218
     69          6           0        8.269769   -6.434464   -1.361909
     70          1           0        7.257085   -6.034090   -1.236961
     71          1           0        8.232034   -7.500686   -1.110853
     72          1           0        8.917133   -5.941317   -0.627234
     73          6           0        7.884143   -6.932973   -3.817636
     74          1           0        6.857166   -6.551838   -3.778660
     75          1           0        7.839822   -8.010460   -3.621853
     76          1           0        8.253908   -6.794341   -4.840503
 ---------------------------------------------------------------------

 SCF Done:  E(RHF) =  -1273.68298690     A.U. after    9 cycles

 Alpha  occ. eigenvalues --  -20.62347 -20.62019 -20.56065 -11.28463 -11.28235
 Alpha  occ. eigenvalues --  -11.24960 -11.24526 -11.23086 -11.22974 -11.22956
 Alpha  occ. eigenvalues --  -11.22918 -11.22673 -11.22636 -11.22402 -11.22334
 Alpha  occ. eigenvalues --  -11.22255 -11.22219 -11.21901 -11.21789 -11.21499
 Alpha  occ. eigenvalues --  -11.21327 -11.21299 -11.21256 -11.21156 -11.21124
 Alpha  occ. eigenvalues --  -11.21019 -11.20868 -11.20842 -11.20841 -11.20809
 Alpha  occ. eigenvalues --   -1.45652  -1.35443  -1.22092  -1.15601  -1.13939
 Alpha  occ. eigenvalues --   -1.09467  -1.07904  -1.05788  -1.05683  -1.03080
 Alpha  occ. eigenvalues --   -1.01519  -0.99388  -0.97942  -0.96357  -0.92929
 Alpha  occ. eigenvalues --   -0.92295  -0.92199  -0.90857  -0.90735  -0.86232
 Alpha  occ. eigenvalues --   -0.84412  -0.83041  -0.82683  -0.79113  -0.78172
 Alpha  occ. eigenvalues --   -0.76886  -0.74496  -0.73001  -0.71798  -0.70814
 Alpha  occ. eigenvalues --   -0.69118  -0.67107  -0.65670  -0.64449  -0.64280
 Alpha  occ. eigenvalues --   -0.63903  -0.63301  -0.62785  -0.61982  -0.61724
 Alpha  occ. eigenvalues --   -0.61036  -0.60107  -0.59333  -0.59084  -0.58443
 Alpha  occ. eigenvalues --   -0.58102  -0.57570  -0.57092  -0.56433  -0.56018
 Alpha  occ. eigenvalues --   -0.55080  -0.54756  -0.54469  -0.54086  -0.53788
 Alpha  occ. eigenvalues --   -0.53200  -0.53113  -0.52651  -0.52044  -0.51602
 Alpha  occ. eigenvalues --   -0.51437  -0.50453  -0.50154  -0.49661  -0.49043
 Alpha  occ. eigenvalues --   -0.48373  -0.48113  -0.47632  -0.47331  -0.47193
 Alpha  occ. eigenvalues --   -0.46564  -0.46144  -0.45396  -0.45121  -0.44846
 Alpha  occ. eigenvalues --   -0.44508  -0.44322  -0.43568  -0.43291  -0.42855
 Alpha  occ. eigenvalues --   -0.42594  -0.42294  -0.41621  -0.40202  -0.38940
 Alpha  occ. eigenvalues --   -0.34683
 Alpha virt. eigenvalues --    0.16034   0.20414   0.21268   0.21769   0.22268
 Alpha virt. eigenvalues --    0.22948   0.23065   0.24080   0.24249   0.24717
 Alpha virt. eigenvalues --    0.25326   0.26080   0.26569   0.26679   0.27368

 Mulliken charges:
               1
     1  C    0.194087
     2  H    0.172045
     3  C   -0.368769
     4  H    0.192255
     5  H    0.155625
     6  C    0.083483
     7  C   -0.044590
     8  C   -0.325398
     9  H    0.168077
    10  H    0.173686
    11  C   -0.341378
    12  H    0.145081
    13  H    0.184049
    14  C   -0.277150
    15  H    0.193412
    16  C    0.192121
    17  H    0.186723
    18  C   -0.209783
    19  H    0.171940
    20  C   -0.157520
    21  H    0.177955
    22  C   -0.329557
    23  H    0.164362
    24  H    0.165334
    25  C   -0.298138
    26  H    0.154992
    27  H    0.163995
    28  C   -0.028527
    29  C   -0.152692
    30  H    0.186627
    31  C   -0.325831
    32  H    0.189214
    33  H    0.151096
    34  C   -0.335413
    35  H    0.158768
    36  H    0.169740
    37  C   -0.142703
    38  H    0.159183
    39  C   -0.490599
    40  H    0.159595
    41  H    0.166198
    42  H    0.162804
    43  C   -0.147302
    44  H    0.156049
    45  C   -0.485899
    46  H    0.157248
    47  H    0.157368
    48  H    0.160504
    49  C   -0.482815
    50  H    0.168191
    51  H    0.162952
    52  H    0.169473
    53  O   -0.398437
    54  O   -0.464439
    55  H    0.459481
    56  O   -0.758789
    57  H    0.428758
    58  C   -0.309232
    59  H    0.151947
    60  H    0.161189
    61  C   -0.322046
    62  H    0.161190
    63  H    0.160089
    64  C   -0.300033
    65  H    0.151395
    66  H    0.150597
    67  C   -0.146077
    68  H    0.154907
    69  C   -0.476390
    70  H    0.156366
    71  H    0.158020
    72  H    0.157477
    73  C   -0.476056
    74  H    0.155646
    75  H    0.158023
    76  H    0.156245
 Sum of Mulliken charges =   0.00000

 Dipole moment (field-independent basis, Debye):
    X=             -0.6698    Y=              1.6479    Z=             -1.8168  Tot=              2.5426
 Quadrupole moment (field-independent basis, Debye-Ang):
   XX=           -204.2914   YY=           -184.8142   ZZ=           -195.1372
   XY=              5.0305   XZ=             -2.1502   YZ=             -2.1765

 ESP charges:
               1
     1  C    0.583197
     2  H    0.031533
     3  C   -0.539800
     4  H    0.159256
     5  H    0.137207
     6  C    0.218529
     7  C    0.265506
     8  C    0.028818
     9  H   -0.007787
    10  H    0.047930
    11  C   -0.378259
    12  H    0.086901
    13  H    0.094164
    14  C   -0.507762
    15  H    0.169068
    16  C    0.534804
    17  H    0.047091
    18  C   -0.533782
    19  H    0.141729
    20  C   -0.262713
    21  H    0.113989
    22  C    0.081904
    23  H    0.016849
    24  H    0.004858
    25  C   -0.302531
    26  H    0.042899
    27  H    0.056526
    28  C    0.607561
    29  C    0.354226
    30  H   -0.026700
    31  C   -0.479307
    32  H    0.155706
    33  H    0.091156
    34  C   -0.046895
    35  H    0.032040
    36  H    0.038516
    37  C    0.101809
    38  H   -0.089670
    39  C   -0.657710
    40  H    0.150301
    41  H    0.128751
    42  H    0.132745
    43  C    0.072669
    44  H    0.012274
    45  C   -0.399126
    46  H    0.076220
    47  H    0.107422
    48  H    0.086207
    49  C   -0.434511
    50  H    0.103068
    51  H    0.106169
    52  H    0.121000
    53  O   -0.295857
    54  O   -0.471149
    55  H    0.445029
    56  O   -0.753760
    57  H    0.427175
    58  C   -0.193845
    59  H    0.055240
    60  H    0.013339
    61  C    0.266066
    62  H   -0.016155
    63  H   -0.015835
    64  C   -0.379651
    65  H    0.072913
    66  H    0.066119
    67  C    0.444721
    68  H   -0.040483
    69  C   -0.448372
    70  H    0.101538
    71  H    0.100279
    72  H    0.098563
    73  C   -0.445884
    74  H    0.097317
    75  H    0.099638
    76  H    0.099011
 Sum of ESP charges =   0.00000

 Normal termination of Gaussian 09 at Wed Apr 26 14:34:41 2017.
