 Gaussian 09, Revision D.01,
 Gaussian 09:  EM64L-G09RevD.01 24-Apr-2013

 ----------------------------------------------------------------------
 #P HF/6-31G* SCF(Conver=6) NoSymm Test Pop=mk IOp(6/33=2) GFInput GFPr
 int
 ----------------------------------------------------------------------

 ----------------------------------------------
 MEP - Input generated by R.E.D.-III.x MOLECULE
 ----------------------------------------------
 Symbolic Z-matrix:
 Charge =  0 Multiplicity = 1

                          Input orientation:
 ---------------------------------------------------------------------
 Center     Atomic      Atomic             Coordinates (Angstroms)
 Number     Number       Type             X           Y           Z
 ---------------------------------------------------------------------
      1          6           0        7.516673    2.150404   -0.057344
      2          1           0        7.415822    2.066987    1.031743
      3          6           0        6.762664    0.984812   -0.716942
      4          1           0        7.153845    0.033797   -0.342327
      5          1           0        6.981738    1.012611   -1.795970
      6          6           0        5.264135    1.062533   -0.489647
      7          6           0        4.581009    2.388253   -0.848531
      8          6           0        5.417895    3.548792   -0.226526
      9          1           0        5.271198    3.531344    0.862009
     10          1           0        5.023636    4.508487   -0.577648
     11          6           0        6.926175    3.484834   -0.512739
     12          1           0        7.120145    3.614953   -1.587729
     13          1           0        7.440176    4.305729    0.000000
     14          6           0        4.606604    0.000000    0.000000
     15          1           0        5.163857   -0.905593    0.232548
     16          6           0        3.129183   -0.044520    0.264080
     17          1           0        2.717015   -1.009784   -0.056350
     18          6           0        2.368702    1.100682   -0.428820
     19          1           0        2.354061    0.827058   -1.493063
     20          6           0        3.129422    2.442685   -0.253720
     21          1           0        3.250528    2.576135    0.831324
     22          6           0        2.305263    3.649491   -0.765131
     23          1           0        2.288262    3.653919   -1.859676
     24          1           0        2.801516    4.580730   -0.468536
     25          6           0        0.848884    3.686441   -0.258633
     26          1           0        0.840269    3.844814    0.829007
     27          1           0        0.346644    4.551986   -0.705656
     28          6           0        0.103346    2.376014   -0.577423
     29          6           0        0.923906    1.227034    0.077064
     30          1           0        0.996752    1.492285    1.140231
     31          6           0        0.000000    0.000000    0.000000
     32          1           0        0.238449   -0.737987    0.770981
     33          1           0        0.098088   -0.503976   -0.970031
     34          6           0       -1.424062    0.601934    0.172360
     35          1           0       -2.085098    0.272030   -0.635531
     36          1           0       -1.894079    0.273893    1.105805
     37          6           0       -1.257143    2.154598    0.169137
     38          1           0       -1.044487    2.443315    1.209615
     39          6           0       -0.038046    2.197831   -2.106613
     40          1           0        0.927612    2.043597   -2.595320
     41          1           0       -0.669369    1.344152   -2.366460
     42          1           0       -0.485605    3.087547   -2.559364
     43          6           0       -2.572841    2.915550   -0.169948
     44          1           0       -3.294654    2.488280    0.543119
     45          6           0       -3.174239    2.684972   -1.570530
     46          1           0       -2.655465    3.263342   -2.341222
     47          1           0       -4.225041    2.991819   -1.588343
     48          1           0       -3.145983    1.632478   -1.867037
     49          6           0        4.570152    2.525183   -2.395927
     50          1           0        4.277858    3.533439   -2.703862
     51          1           0        5.555766    2.331362   -2.825737
     52          1           0        3.875265    1.813192   -2.851960
     53          8           0        2.849884    0.069494    1.686909
     54          8           0        3.346156   -1.136887    2.331810
     55          1           0        4.119692   -0.788072    2.805027
     56          8           0        8.925854    2.066355   -0.284610
     57          1           0        9.093289    2.159954   -1.232961
     58          6           0       -2.471643    4.425232    0.147846
     59          1           0       -1.957226    4.549423    1.109728
     60          1           0       -1.827509    4.905104   -0.600016
     61          6           0       -3.803343    5.203001    0.184759
     62          1           0       -3.572040    6.258696    0.375952
     63          1           0       -4.266086    5.184271   -0.810130
     64          6           0       -4.847622    4.717370    1.208039
     65          1           0       -5.172280    3.701935    0.943321
     66          1           0       -5.743127    5.348923    1.110318
     67          6           0       -4.415913    4.718750    2.689820
     68          1           0       -3.530062    4.075139    2.791166
     69          6           0       -4.037140    6.121939    3.189925
     70          1           0       -4.883780    6.813220    3.086788
     71          1           0       -3.756374    6.097173    4.249002
     72          1           0       -3.192895    6.544463    2.635610
     73          6           0       -5.524902    4.115309    3.566677
     74          1           0       -6.439086    4.720393    3.512168
     75          1           0       -5.220153    4.068271    4.618386
     76          1           0       -5.779700    3.098682    3.245701
 ---------------------------------------------------------------------

 SCF Done:  E(RHF) =  -1273.67662967     A.U. after    9 cycles

 Alpha  occ. eigenvalues --  -20.62347 -20.62021 -20.56069 -11.28470 -11.28239
 Alpha  occ. eigenvalues --  -11.24966 -11.24533 -11.23089 -11.22988 -11.22961
 Alpha  occ. eigenvalues --  -11.22927 -11.22678 -11.22643 -11.22407 -11.22360
 Alpha  occ. eigenvalues --  -11.22358 -11.22256 -11.21942 -11.21906 -11.21525
 Alpha  occ. eigenvalues --  -11.21521 -11.21405 -11.21345 -11.21307 -11.21088
 Alpha  occ. eigenvalues --  -11.20974 -11.20961 -11.20905 -11.20901 -11.20807
 Alpha  occ. eigenvalues --   -1.45654  -1.35446  -1.22089  -1.15592  -1.13904
 Alpha  occ. eigenvalues --   -1.09645  -1.07898  -1.05787  -1.05647  -1.03091
 Alpha  occ. eigenvalues --   -1.01575  -0.99269  -0.97955  -0.96323  -0.92678
 Alpha  occ. eigenvalues --   -0.92414  -0.92348  -0.91843  -0.90596  -0.86234
 Alpha  occ. eigenvalues --   -0.84361  -0.83078  -0.82625  -0.78772  -0.78439
 Alpha  occ. eigenvalues --   -0.76997  -0.74227  -0.73284  -0.71894  -0.70762
 Alpha  occ. eigenvalues --   -0.69033  -0.67100  -0.65270  -0.64860  -0.64406
 Alpha  occ. eigenvalues --   -0.63789  -0.63457  -0.62952  -0.62613  -0.61362
 Alpha  occ. eigenvalues --   -0.61139  -0.59695  -0.59187  -0.59031  -0.58400
 Alpha  occ. eigenvalues --   -0.57855  -0.57715  -0.57405  -0.56555  -0.55909
 Alpha  occ. eigenvalues --   -0.55474  -0.54690  -0.54219  -0.53920  -0.53769
 Alpha  occ. eigenvalues --   -0.53352  -0.53232  -0.52877  -0.52183  -0.51853
 Alpha  occ. eigenvalues --   -0.50900  -0.50733  -0.49980  -0.49644  -0.49050
 Alpha  occ. eigenvalues --   -0.48655  -0.48182  -0.47988  -0.47373  -0.47105
 Alpha  occ. eigenvalues --   -0.46763  -0.46171  -0.45469  -0.45307  -0.45101
 Alpha  occ. eigenvalues --   -0.44351  -0.44178  -0.43690  -0.42987  -0.42882
 Alpha  occ. eigenvalues --   -0.42680  -0.42303  -0.41489  -0.40176  -0.38835
 Alpha  occ. eigenvalues --   -0.34688
 Alpha virt. eigenvalues --    0.16027   0.19811   0.20995   0.21693   0.22320
 Alpha virt. eigenvalues --    0.22991   0.23344   0.23939   0.24256   0.24587
 Alpha virt. eigenvalues --    0.25519   0.25657   0.26401   0.26723   0.27025

 Mulliken charges:
               1
     1  C    0.194121
     2  H    0.172007
     3  C   -0.368763
     4  H    0.192276
     5  H    0.155688
     6  C    0.083563
     7  C   -0.044795
     8  C   -0.325410
     9  H    0.168023
    10  H    0.173719
    11  C   -0.341418
    12  H    0.145109
    13  H    0.184052
    14  C   -0.277663
    15  H    0.193502
    16  C    0.192965
    17  H    0.186720
    18  C   -0.210065
    19  H    0.171893
    20  C   -0.157365
    21  H    0.177937
    22  C   -0.330003
    23  H    0.165266
    24  H    0.165270
    25  C   -0.298925
    26  H    0.155064
    27  H    0.162226
    28  C   -0.023547
    29  C   -0.156101
    30  H    0.187880
    31  C   -0.325616
    32  H    0.188510
    33  H    0.151437
    34  C   -0.328597
    35  H    0.159045
    36  H    0.166923
    37  C   -0.153157
    38  H    0.155656
    39  C   -0.486352
    40  H    0.158258
    41  H    0.167064
    42  H    0.161076
    43  C   -0.140605
    44  H    0.157033
    45  C   -0.486659
    46  H    0.155469
    47  H    0.162387
    48  H    0.161073
    49  C   -0.482539
    50  H    0.168228
    51  H    0.162890
    52  H    0.169468
    53  O   -0.398536
    54  O   -0.464308
    55  H    0.459424
    56  O   -0.758803
    57  H    0.428768
    58  C   -0.312715
    59  H    0.156651
    60  H    0.154495
    61  C   -0.316073
    62  H    0.158523
    63  H    0.159358
    64  C   -0.304129
    65  H    0.155523
    66  H    0.151427
    67  C   -0.151800
    68  H    0.155947
    69  C   -0.476872
    70  H    0.151981
    71  H    0.158528
    72  H    0.161737
    73  C   -0.471655
    74  H    0.152284
    75  H    0.158473
    76  H    0.157552
 Sum of Mulliken charges =   0.00000

 Dipole moment (field-independent basis, Debye):
    X=              0.3808    Y=              1.3490    Z=             -2.1237  Tot=              2.5446
 Quadrupole moment (field-independent basis, Debye-Ang):
   XX=           -199.9140   YY=           -188.7814   ZZ=           -187.9953
   XY=              3.0371   XZ=            -10.1331   YZ=             -2.6447

 ESP charges:
               1
     1  C    0.540948
     2  H    0.043858
     3  C   -0.509473
     4  H    0.153834
     5  H    0.137135
     6  C    0.192754
     7  C    0.260553
     8  C   -0.041005
     9  H    0.011212
    10  H    0.064852
    11  C   -0.348071
    12  H    0.086696
    13  H    0.093616
    14  C   -0.500086
    15  H    0.166078
    16  C    0.572032
    17  H    0.028226
    18  C   -0.589258
    19  H    0.141692
    20  C   -0.191011
    21  H    0.095367
    22  C    0.063240
    23  H    0.012152
    24  H   -0.002322
    25  C   -0.186508
    26  H    0.009696
    27  H    0.009653
    28  C    0.643528
    29  C    0.367422
    30  H   -0.053974
    31  C   -0.216403
    32  H    0.094938
    33  H    0.025499
    34  C   -0.197306
    35  H    0.069455
    36  H    0.060269
    37  C   -0.230658
    38  H    0.024306
    39  C   -0.656623
    40  H    0.133501
    41  H    0.154422
    42  H    0.129819
    43  C    0.421596
    44  H   -0.033280
    45  C   -0.553293
    46  H    0.117337
    47  H    0.133400
    48  H    0.117578
    49  C   -0.416733
    50  H    0.099328
    51  H    0.102996
    52  H    0.117849
    53  O   -0.295311
    54  O   -0.470824
    55  H    0.441594
    56  O   -0.745324
    57  H    0.424761
    58  C   -0.207005
    59  H    0.013578
    60  H    0.055459
    61  C   -0.058982
    62  H    0.031142
    63  H    0.037229
    64  C   -0.200886
    65  H    0.038846
    66  H    0.039777
    67  C    0.545704
    68  H   -0.072777
    69  C   -0.460413
    70  H    0.098885
    71  H    0.092063
    72  H    0.108141
    73  C   -0.510385
    74  H    0.109803
    75  H    0.114463
    76  H    0.099623
 Sum of ESP charges =   0.00000

 Normal termination of Gaussian 09 at Wed Apr 26 14:10:45 2017.
