 Gaussian 09, Revision D.01,
 Gaussian 09:  EM64L-G09RevD.01 24-Apr-2013

 ----------------------------------------------------------------------
 #P HF/6-31G* SCF(Conver=6) NoSymm Test Pop=mk IOp(6/33=2) GFInput GFPr
 int
 ----------------------------------------------------------------------

 ----------------------------------------------
 MEP - Input generated by R.E.D.-III.x MOLECULE
 ----------------------------------------------
 Symbolic Z-matrix:
 Charge =  0 Multiplicity = 1

                          Input orientation:
 ---------------------------------------------------------------------
 Center     Atomic      Atomic             Coordinates (Angstroms)
 Number     Number       Type             X           Y           Z
 ---------------------------------------------------------------------
      1          6           0        1.013949   -0.884892   -1.686228
      2          1           0        1.145006    0.085078   -2.181434
      3          6           0        2.249252   -1.755952   -1.964612
      4          1           0        2.388239   -1.863778   -3.044823
      5          1           0        2.043325   -2.763915   -1.571264
      6          6           0        3.507586   -1.196854   -1.326455
      7          6           0        3.433469   -0.868127    0.169870
      8          6           0        2.129007   -0.050731    0.423145
      9          1           0        2.266889    0.953595    0.000000
     10          1           0        1.988766    0.083160    1.501207
     11          6           0        0.855273   -0.660419   -0.182498
     12          1           0        0.620301   -1.620290    0.300832
     13          1           0        0.000000    0.000000    0.000000
     14          6           0        4.610569   -1.017180   -2.069505
     15          1           0        4.583185   -1.272861   -3.127146
     16          6           0        5.911603   -0.474536   -1.552587
     17          1           0        6.751523   -1.039904   -1.975811
     18          6           0        5.994022   -0.494088   -0.015335
     19          1           0        6.146109   -1.550413    0.247845
     20          6           0        4.663131    0.003739    0.607326
     21          1           0        4.492177    1.004233    0.183529
     22          6           0        4.774456    0.177451    2.140653
     23          1           0        4.786716   -0.802998    2.627575
     24          1           0        3.879915    0.687807    2.515966
     25          6           0        6.017590    0.963090    2.605859
     26          1           0        5.949193    2.002933    2.255752
     27          1           0        6.009499    1.001688    3.699644
     28          6           0        7.322374    0.345551    2.060804
     29          6           0        7.180328    0.326980    0.512811
     30          1           0        6.983363    1.369898    0.228758
     31          6           0        8.588702    0.000000    0.000000
     32          1           0        8.742643    0.348455   -1.025018
     33          1           0        8.765112   -1.083288    0.002485
     34          6           0        9.518962    0.718442    1.015322
     35          1           0       10.294596    0.037501    1.386159
     36          1           0       10.042623    1.554933    0.543653
     37          6           0        8.619941    1.217143    2.199045
     38          1           0        8.314605    2.252470    1.979395
     39          6           0        7.557727   -1.061789    2.655612
     40          1           0        6.765489   -1.766326    2.389391
     41          1           0        8.502430   -1.495962    2.314657
     42          1           0        7.595570   -1.019533    3.749164
     43          6           0        9.381282    1.253815    3.549930
     44          1           0        9.754992    0.238282    3.752337
     45          6           0        8.496505    1.679528    4.735055
     46          1           0        8.026533    2.652357    4.542966
     47          1           0        9.082536    1.771038    5.654343
     48          1           0        7.700606    0.959146    4.936589
     49          6           0        3.371559   -2.205818    0.957289
     50          1           0        3.118623   -2.037691    2.008317
     51          1           0        2.615167   -2.880426    0.549209
     52          1           0        4.329008   -2.734398    0.915963
     53          8           0        6.099160    0.908169   -1.962725
     54          8           0        6.282847    0.918457   -3.406362
     55          1           0        5.443560    1.312879   -3.696074
     56          8           0       -0.163818   -1.427667   -2.288579
     57          1           0       -0.357140   -2.281838   -1.877265
     58          6           0       10.617488    2.181238    3.441696
     59          1           0       11.164223    1.950604    2.520432
     60          1           0       10.270127    3.220602    3.335676
     61          6           0       11.614526    2.095200    4.609321
     62          1           0       11.129718    2.398315    5.544184
     63          1           0       11.914011    1.046415    4.740831
     64          6           0       12.858411    2.967641    4.373316
     65          1           0       12.532717    4.005062    4.208879
     66          1           0       13.338212    2.649877    3.436319
     67          6           0       13.927900    2.966794    5.490415
     68          1           0       14.729896    3.633153    5.139618
     69          6           0       13.404883    3.549765    6.813855
     70          1           0       12.640363    2.906952    7.265340
     71          1           0       14.217032    3.651651    7.542768
     72          1           0       12.962825    4.542123    6.665821
     73          6           0       14.556418    1.580319    5.707947
     74          1           0       13.832199    0.868210    6.120167
     75          1           0       15.394315    1.638192    6.412118
     76          1           0       14.937996    1.163201    4.768513
 ---------------------------------------------------------------------

 SCF Done:  E(RHF) =  -1273.68331425     A.U. after    9 cycles

 Alpha  occ. eigenvalues --  -20.62340 -20.62012 -20.56059 -11.28458 -11.28228
 Alpha  occ. eigenvalues --  -11.24948 -11.24514 -11.23078 -11.22959 -11.22947
 Alpha  occ. eigenvalues --  -11.22903 -11.22666 -11.22657 -11.22428 -11.22393
 Alpha  occ. eigenvalues --  -11.22247 -11.22234 -11.21892 -11.21885 -11.21479
 Alpha  occ. eigenvalues --  -11.21401 -11.21304 -11.21288 -11.21200 -11.21113
 Alpha  occ. eigenvalues --  -11.21007 -11.20951 -11.20938 -11.20806 -11.20771
 Alpha  occ. eigenvalues --   -1.45642  -1.35436  -1.22086  -1.15586  -1.13912
 Alpha  occ. eigenvalues --   -1.09519  -1.07967  -1.05797  -1.05733  -1.03072
 Alpha  occ. eigenvalues --   -1.01582  -0.99436  -0.97960  -0.96332  -0.92917
 Alpha  occ. eigenvalues --   -0.92309  -0.92298  -0.90915  -0.90689  -0.86221
 Alpha  occ. eigenvalues --   -0.84292  -0.82723  -0.82660  -0.78986  -0.78096
 Alpha  occ. eigenvalues --   -0.76961  -0.74546  -0.73658  -0.72029  -0.70816
 Alpha  occ. eigenvalues --   -0.69088  -0.67111  -0.65626  -0.64443  -0.64385
 Alpha  occ. eigenvalues --   -0.63893  -0.63285  -0.62801  -0.62289  -0.61289
 Alpha  occ. eigenvalues --   -0.61174  -0.59730  -0.59467  -0.59076  -0.58552
 Alpha  occ. eigenvalues --   -0.58166  -0.57667  -0.57381  -0.56104  -0.56056
 Alpha  occ. eigenvalues --   -0.55302  -0.54965  -0.54496  -0.54078  -0.53667
 Alpha  occ. eigenvalues --   -0.53227  -0.53005  -0.52486  -0.52041  -0.51525
 Alpha  occ. eigenvalues --   -0.50826  -0.50640  -0.50377  -0.49630  -0.49019
 Alpha  occ. eigenvalues --   -0.48312  -0.48120  -0.47797  -0.47299  -0.46842
 Alpha  occ. eigenvalues --   -0.46442  -0.46105  -0.45430  -0.45117  -0.44965
 Alpha  occ. eigenvalues --   -0.44820  -0.44321  -0.43751  -0.43392  -0.43077
 Alpha  occ. eigenvalues --   -0.42815  -0.42290  -0.41635  -0.40195  -0.38791
 Alpha  occ. eigenvalues --   -0.34673
 Alpha virt. eigenvalues --    0.16045   0.20563   0.21421   0.21905   0.22236
 Alpha virt. eigenvalues --    0.22804   0.23160   0.24254   0.24425   0.24993
 Alpha virt. eigenvalues --    0.25542   0.26282   0.26399   0.26710   0.27084

 Mulliken charges:
               1
     1  C    0.194085
     2  H    0.172060
     3  C   -0.368708
     4  H    0.192235
     5  H    0.155616
     6  C    0.083431
     7  C   -0.044683
     8  C   -0.325406
     9  H    0.168068
    10  H    0.173683
    11  C   -0.341387
    12  H    0.145065
    13  H    0.184038
    14  C   -0.276913
    15  H    0.193389
    16  C    0.191958
    17  H    0.186642
    18  C   -0.209728
    19  H    0.171895
    20  C   -0.157447
    21  H    0.177925
    22  C   -0.329440
    23  H    0.164220
    24  H    0.165325
    25  C   -0.298296
    26  H    0.155287
    27  H    0.164174
    28  C   -0.030148
    29  C   -0.153055
    30  H    0.187087
    31  C   -0.325496
    32  H    0.188991
    33  H    0.150933
    34  C   -0.336145
    35  H    0.157816
    36  H    0.171269
    37  C   -0.136921
    38  H    0.155140
    39  C   -0.489828
    40  H    0.159222
    41  H    0.166143
    42  H    0.163189
    43  C   -0.148940
    44  H    0.151563
    45  C   -0.484927
    46  H    0.153319
    47  H    0.163220
    48  H    0.160740
    49  C   -0.482682
    50  H    0.168169
    51  H    0.162904
    52  H    0.169416
    53  O   -0.398339
    54  O   -0.464533
    55  H    0.459504
    56  O   -0.758826
    57  H    0.428744
    58  C   -0.307681
    59  H    0.166463
    60  H    0.148205
    61  C   -0.314661
    62  H    0.158885
    63  H    0.153652
    64  C   -0.300903
    65  H    0.151922
    66  H    0.151709
    67  C   -0.146359
    68  H    0.155502
    69  C   -0.476247
    70  H    0.155188
    71  H    0.158222
    72  H    0.156964
    73  C   -0.476115
    74  H    0.155824
    75  H    0.157954
    76  H    0.156858
 Sum of Mulliken charges =   0.00000

 Dipole moment (field-independent basis, Debye):
    X=             -0.9053    Y=             -1.4570    Z=              1.7686  Tot=              2.4638
 Quadrupole moment (field-independent basis, Debye-Ang):
   XX=           -209.5683   YY=           -185.9878   ZZ=           -195.8682
   XY=             -5.6244   XZ=              5.1598   YZ=             -0.5405

 ESP charges:
               1
     1  C    0.560306
     2  H    0.037934
     3  C   -0.528889
     4  H    0.156971
     5  H    0.138709
     6  C    0.239301
     7  C    0.210603
     8  C   -0.018264
     9  H    0.010061
    10  H    0.065308
    11  C   -0.360390
    12  H    0.088923
    13  H    0.093614
    14  C   -0.531046
    15  H    0.172964
    16  C    0.565160
    17  H    0.035581
    18  C   -0.488664
    19  H    0.130137
    20  C   -0.277872
    21  H    0.115430
    22  C    0.124532
    23  H    0.002441
    24  H   -0.008857
    25  C   -0.227438
    26  H    0.023149
    27  H    0.025656
    28  C    0.610807
    29  C    0.299041
    30  H   -0.023475
    31  C   -0.366370
    32  H    0.131018
    33  H    0.062331
    34  C   -0.055767
    35  H    0.045110
    36  H    0.038004
    37  C   -0.153609
    38  H    0.008026
    39  C   -0.634560
    40  H    0.143527
    41  H    0.136844
    42  H    0.127020
    43  C    0.155438
    44  H    0.003079
    45  C   -0.452850
    46  H    0.102912
    47  H    0.096622
    48  H    0.112870
    49  C   -0.391256
    50  H    0.096367
    51  H    0.099290
    52  H    0.111641
    53  O   -0.300872
    54  O   -0.472848
    55  H    0.447026
    56  O   -0.747711
    57  H    0.424524
    58  C   -0.101594
    59  H    0.011764
    60  H    0.041237
    61  C    0.150607
    62  H    0.007645
    63  H   -0.023114
    64  C   -0.306474
    65  H    0.045940
    66  H    0.059474
    67  C    0.449216
    68  H   -0.056614
    69  C   -0.398166
    70  H    0.082952
    71  H    0.086316
    72  H    0.086481
    73  C   -0.409402
    74  H    0.089663
    75  H    0.087844
    76  H    0.088683
 Sum of ESP charges =   0.00000

 Normal termination of Gaussian 09 at Wed Apr 26 13:32:16 2017.
