 Gaussian 09, Revision D.01,
 Gaussian 09:  EM64L-G09RevD.01 24-Apr-2013

 ----------------------------------------------------------------------
 #P HF/6-31G* SCF(Conver=6) NoSymm Test Pop=mk IOp(6/33=2) GFInput GFPr
 int
 ----------------------------------------------------------------------

 ----------------------------------------------
 MEP - Input generated by R.E.D.-III.x MOLECULE
 ----------------------------------------------
 Symbolic Z-matrix:
 Charge =  0 Multiplicity = 1

                          Input orientation:
 ---------------------------------------------------------------------
 Center     Atomic      Atomic             Coordinates (Angstroms)
 Number     Number       Type             X           Y           Z
 ---------------------------------------------------------------------
      1          6           0       -0.930525    2.000362    1.717615
      2          1           0       -0.984501    1.014095    2.193988
      3          6           0        0.437321    2.628588    2.030906
      4          1           0        0.576138    2.686265    3.114918
      5          1           0        0.423467    3.664728    1.657908
      6          6           0        1.580994    1.862838    1.394046
      7          6           0        1.476956    1.585516   -0.109845
      8          6           0        0.050821    1.022268   -0.398445
      9          1           0        0.000000    0.000000    0.000000
     10          1           0       -0.093915    0.942164   -1.481120
     11          6           0       -1.102264    1.837628    0.207389
     12          1           0       -1.154658    2.833714   -0.256813
     13          1           0       -2.058839    1.344740    0.000000
     14          6           0        2.615211    1.457321    2.146478
     15          1           0        2.609198    1.654674    3.216962
     16          6           0        3.785148    0.674410    1.628214
     17          1           0        4.709091    0.985600    2.127879
     18          6           0        3.928385    0.778656    0.097576
     19          1           0        4.238816    1.815841   -0.097217
     20          6           0        2.539556    0.516144   -0.547362
     21          1           0        2.202169   -0.439576   -0.120015
     22          6           0        2.605256    0.315110   -2.079385
     23          1           0        2.741051    1.277100   -2.583687
     24          1           0        1.644668   -0.076161   -2.433898
     25          6           0        3.723826   -0.636791   -2.545503
     26          1           0        3.521328   -1.653675   -2.180148
     27          1           0        3.701768   -0.686887   -3.638815
     28          6           0        5.100509   -0.188133   -2.019770
     29          6           0        4.997889   -0.168246   -0.466367
     30          1           0        4.690586   -1.184754   -0.182310
     31          6           0        6.453034    0.000000    0.000000
     32          1           0        6.603941   -0.371183    1.015259
     33          1           0        6.742007    1.059097   -0.005926
     34          6           0        7.269714   -0.803264   -1.049675
     35          1           0        8.091558   -0.198120   -1.450704
     36          1           0        7.730480   -1.689968   -0.602891
     37          6           0        6.280983   -1.204616   -2.193631
     38          1           0        5.860405   -2.190958   -1.949187
     39          6           0        5.488372    1.187216   -2.610913
     40          1           0        4.806818    1.983284   -2.300468
     41          1           0        6.495712    1.492142   -2.312476
     42          1           0        5.468995    1.155939   -3.705810
     43          6           0        6.985650   -1.329934   -3.567654
     44          1           0        7.415340   -0.345928   -3.806044
     45          6           0        6.038522   -1.705441   -4.722866
     46          1           0        5.437565   -2.591136   -4.488306
     47          1           0        6.611730   -1.924655   -5.631674
     48          1           0        5.347002   -0.894288   -4.964330
     49          6           0        1.669454    2.928463   -0.866631
     50          1           0        1.416969    2.826799   -1.926160
     51          1           0        1.031838    3.716986   -0.459654
     52          1           0        2.702869    3.280854   -0.793663
     53          8           0        3.500571   -0.682844    2.082863
     54          8           0        4.759208   -1.388358    2.339895
     55          1           0        4.630247   -1.612034    3.275652
     56          8           0       -2.000036    2.737317    2.315916
     57          1           0       -2.034411    3.616155    1.912650
     58          6           0        8.191503   -2.306681   -3.520499
     59          1           0        8.692815   -2.261620   -4.498064
     60          1           0        8.927018   -1.941861   -2.792673
     61          6           0        7.874830   -3.777428   -3.203078
     62          1           0        7.392124   -3.846769   -2.221093
     63          1           0        7.152303   -4.170976   -3.931011
     64          6           0        9.130924   -4.661949   -3.224617
     65          1           0        9.839309   -4.307939   -2.459746
     66          1           0        9.637013   -4.525893   -4.191300
     67          6           0        8.884311   -6.169716   -3.013538
     68          1           0        8.146838   -6.493504   -3.764429
     69          6           0       10.176645   -6.966239   -3.254100
     70          1           0       10.951589   -6.680616   -2.531101
     71          1           0       10.005980   -8.043736   -3.148462
     72          1           0       10.576546   -6.786300   -4.258639
     73          6           0        8.310042   -6.485710   -1.622872
     74          1           0        8.998910   -6.155494   -0.834300
     75          1           0        8.156911   -7.563857   -1.498562
     76          1           0        7.346934   -5.994713   -1.451949
 ---------------------------------------------------------------------

 SCF Done:  E(RHF) =  -1273.68092150     A.U. after    9 cycles

 Alpha  occ. eigenvalues --  -20.62385 -20.62266 -20.55791 -11.28581 -11.27914
 Alpha  occ. eigenvalues --  -11.24653 -11.24294 -11.22827 -11.22619 -11.22483
 Alpha  occ. eigenvalues --  -11.22435 -11.22419 -11.22393 -11.22349 -11.22255
 Alpha  occ. eigenvalues --  -11.22052 -11.21993 -11.21530 -11.21514 -11.21240
 Alpha  occ. eigenvalues --  -11.21154 -11.21125 -11.21098 -11.20945 -11.20874
 Alpha  occ. eigenvalues --  -11.20851 -11.20785 -11.20764 -11.20672 -11.20408
 Alpha  occ. eigenvalues --   -1.45246  -1.35164  -1.22370  -1.15398  -1.13627
 Alpha  occ. eigenvalues --   -1.09378  -1.07763  -1.05530  -1.05485  -1.02840
 Alpha  occ. eigenvalues --   -1.01364  -0.99352  -0.97577  -0.96065  -0.92650
 Alpha  occ. eigenvalues --   -0.92157  -0.92012  -0.90660  -0.90509  -0.85998
 Alpha  occ. eigenvalues --   -0.83786  -0.82516  -0.82444  -0.78744  -0.77890
 Alpha  occ. eigenvalues --   -0.76605  -0.75714  -0.72663  -0.71856  -0.69939
 Alpha  occ. eigenvalues --   -0.68593  -0.66786  -0.66489  -0.64955  -0.63816
 Alpha  occ. eigenvalues --   -0.63576  -0.63268  -0.62137  -0.61873  -0.61504
 Alpha  occ. eigenvalues --   -0.60513  -0.60107  -0.59391  -0.59050  -0.58069
 Alpha  occ. eigenvalues --   -0.57426  -0.56751  -0.56348  -0.55983  -0.55835
 Alpha  occ. eigenvalues --   -0.55514  -0.54543  -0.54273  -0.53966  -0.53495
 Alpha  occ. eigenvalues --   -0.53334  -0.52847  -0.52518  -0.52397  -0.51625
 Alpha  occ. eigenvalues --   -0.50811  -0.50521  -0.49985  -0.49124  -0.48645
 Alpha  occ. eigenvalues --   -0.48301  -0.48049  -0.47408  -0.47112  -0.46793
 Alpha  occ. eigenvalues --   -0.46247  -0.45817  -0.45206  -0.45020  -0.44772
 Alpha  occ. eigenvalues --   -0.44520  -0.44379  -0.43444  -0.43206  -0.42688
 Alpha  occ. eigenvalues --   -0.42454  -0.42116  -0.41415  -0.39878  -0.38326
 Alpha  occ. eigenvalues --   -0.34432
 Alpha virt. eigenvalues --    0.15883   0.20848   0.21374   0.22216   0.22518
 Alpha virt. eigenvalues --    0.23161   0.23532   0.24441   0.24781   0.24976
 Alpha virt. eigenvalues --    0.25387   0.26144   0.26720   0.26956   0.27523

 Mulliken charges:
               1
     1  C    0.192576
     2  H    0.177322
     3  C   -0.368067
     4  H    0.192621
     5  H    0.154659
     6  C    0.085541
     7  C   -0.045316
     8  C   -0.326182
     9  H    0.171915
    10  H    0.173161
    11  C   -0.341692
    12  H    0.143637
    13  H    0.183621
    14  C   -0.249577
    15  H    0.187435
    16  C    0.158639
    17  H    0.189214
    18  C   -0.180904
    19  H    0.164358
    20  C   -0.169319
    21  H    0.188433
    22  C   -0.328784
    23  H    0.162641
    24  H    0.165156
    25  C   -0.298615
    26  H    0.155967
    27  H    0.163143
    28  C   -0.028073
    29  C   -0.164196
    30  H    0.193232
    31  C   -0.326217
    32  H    0.193075
    33  H    0.146823
    34  C   -0.334571
    35  H    0.156798
    36  H    0.167490
    37  C   -0.142276
    38  H    0.159999
    39  C   -0.491954
    40  H    0.160418
    41  H    0.165797
    42  H    0.161346
    43  C   -0.146966
    44  H    0.155689
    45  C   -0.485915
    46  H    0.157815
    47  H    0.156402
    48  H    0.160730
    49  C   -0.481844
    50  H    0.167552
    51  H    0.161772
    52  H    0.169525
    53  O   -0.393176
    54  O   -0.471704
    55  H    0.460670
    56  O   -0.759117
    57  H    0.428021
    58  C   -0.309763
    59  H    0.151454
    60  H    0.161100
    61  C   -0.316843
    62  H    0.161995
    63  H    0.154706
    64  C   -0.294539
    65  H    0.147150
    66  H    0.151072
    67  C   -0.147048
    68  H    0.150899
    69  C   -0.472251
    70  H    0.152305
    71  H    0.157594
    72  H    0.157327
    73  C   -0.476472
    74  H    0.151354
    75  H    0.157583
    76  H    0.163644
 Sum of Mulliken charges =   0.00000

 Dipole moment (field-independent basis, Debye):
    X=              0.7387    Y=              1.6334    Z=             -0.4502  Tot=              1.8484
 Quadrupole moment (field-independent basis, Debye-Ang):
   XX=           -198.0459   YY=           -185.7935   ZZ=           -188.2383
   XY=              4.9138   XZ=             11.3618   YZ=             -3.3848

 ESP charges:
               1
     1  C    0.599236
     2  H    0.029836
     3  C   -0.518498
     4  H    0.149863
     5  H    0.132129
     6  C    0.210242
     7  C    0.243278
     8  C    0.052530
     9  H   -0.010914
    10  H    0.039762
    11  C   -0.399188
    12  H    0.087690
    13  H    0.096583
    14  C   -0.565040
    15  H    0.197571
    16  C    0.588083
    17  H    0.009430
    18  C   -0.399105
    19  H    0.106624
    20  C   -0.171903
    21  H    0.091189
    22  C    0.027293
    23  H    0.020577
    24  H    0.004257
    25  C   -0.215639
    26  H    0.019272
    27  H    0.039895
    28  C    0.526761
    29  C    0.215190
    30  H    0.037062
    31  C   -0.371562
    32  H    0.104718
    33  H    0.071202
    34  C   -0.043079
    35  H    0.019220
    36  H    0.041836
    37  C    0.110545
    38  H   -0.094387
    39  C   -0.624063
    40  H    0.140901
    41  H    0.127442
    42  H    0.125548
    43  C    0.167628
    44  H   -0.019847
    45  C   -0.424504
    46  H    0.083355
    47  H    0.109416
    48  H    0.088430
    49  C   -0.399527
    50  H    0.091015
    51  H    0.098763
    52  H    0.104008
    53  O   -0.324648
    54  O   -0.489181
    55  H    0.453393
    56  O   -0.756510
    57  H    0.425832
    58  C   -0.160944
    59  H    0.049453
    60  H    0.004622
    61  C    0.065081
    62  H    0.033474
    63  H    0.007964
    64  C   -0.285088
    65  H    0.076649
    66  H    0.068248
    67  C    0.410055
    68  H   -0.021223
    69  C   -0.507331
    70  H    0.118713
    71  H    0.121212
    72  H    0.109644
    73  C   -0.488290
    74  H    0.123323
    75  H    0.114741
    76  H    0.099686
 Sum of ESP charges =   0.00000

 Normal termination of Gaussian 09 at Wed Apr 26 14:16:34 2017.
