 Gaussian 09, Revision D.01,
 Gaussian 09:  EM64L-G09RevD.01 24-Apr-2013

 ----------------------------------------------------------------------
 #P HF/6-31G* SCF(Conver=6) NoSymm Test Pop=mk IOp(6/33=2) GFInput GFPr
 int
 ----------------------------------------------------------------------

 ----------------------------------------------
 MEP - Input generated by R.E.D.-III.x MOLECULE
 ----------------------------------------------
 Symbolic Z-matrix:
 Charge =  0 Multiplicity = 1

                          Input orientation:
 ---------------------------------------------------------------------
 Center     Atomic      Atomic             Coordinates (Angstroms)
 Number     Number       Type             X           Y           Z
 ---------------------------------------------------------------------
      1          6           0        7.507461    2.151022   -0.049724
      2          1           0        7.401835    2.071047    1.039178
      3          6           0        6.756337    0.983404   -0.708948
      4          1           0        7.145828    0.033560   -0.329634
      5          1           0        6.980286    1.007790   -1.787085
      6          6           0        5.256843    1.061709   -0.488406
      7          6           0        4.575007    2.386639   -0.852211
      8          6           0        5.409721    3.549147   -0.231129
      9          1           0        5.259240    3.535390    0.856952
     10          1           0        5.016625    4.507690   -0.586803
     11          6           0        6.918978    3.484043   -0.511803
     12          1           0        7.116804    3.610444   -1.586534
     13          1           0        7.431340    4.306538    0.000000
     14          6           0        4.597069    0.000000    0.000000
     15          1           0        5.153199   -0.905345    0.236215
     16          6           0        3.118811   -0.043951    0.259242
     17          1           0        2.707369   -1.009095   -0.062344
     18          6           0        2.360342    1.101895   -0.434861
     19          1           0        2.343596    0.828355   -1.499295
     20          6           0        3.122263    2.442057   -0.260621
     21          1           0        3.241356    2.577636    0.824379
     22          6           0        2.297155    3.644962   -0.776421
     23          1           0        2.284496    3.647146   -1.871101
     24          1           0        2.789008    4.578653   -0.480114
     25          6           0        0.838200    3.680635   -0.276837
     26          1           0        0.824402    3.835860    0.811362
     27          1           0        0.344980    4.550572   -0.721517
     28          6           0        0.091345    2.368672   -0.595712
     29          6           0        0.914677    1.229697    0.069006
     30          1           0        0.981852    1.504598    1.130611
     31          6           0        0.000000    0.000000    0.000000
     32          1           0        0.249298   -0.739242    0.766261
     33          1           0        0.088921   -0.500923   -0.972539
     34          6           0       -1.421820    0.595060    0.191785
     35          1           0       -2.103408    0.236965   -0.589112
     36          1           0       -1.854475    0.281922    1.146364
     37          6           0       -1.287275    2.155307    0.123212
     38          1           0       -1.154428    2.528882    1.150944
     39          6           0       -0.067191    2.179904   -2.121613
     40          1           0        0.894064    2.106842   -2.636927
     41          1           0       -0.631878    1.274509   -2.363861
     42          1           0       -0.604350    3.025957   -2.562980
     43          6           0       -2.562649    2.838065   -0.438065
     44          1           0       -2.741352    2.428887   -1.442801
     45          6           0       -2.429787    4.365281   -0.566044
     46          1           0       -2.178088    4.820485    0.400295
     47          1           0       -3.364522    4.817874   -0.910353
     48          1           0       -1.656350    4.652850   -1.281461
     49          6           0        4.568147    2.519486   -2.399958
     50          1           0        4.274789    3.526319   -2.711630
     51          1           0        5.555313    2.326535   -2.826609
     52          1           0        3.876115    1.804724   -2.855934
     53          8           0        2.835456    0.070195    1.681230
     54          8           0        3.325838   -1.138289    2.326840
     55          1           0        4.096496   -0.791466    2.806151
     56          8           0        8.917609    2.066157   -0.270573
     57          1           0        9.089160    2.155672   -1.218582
     58          6           0       -3.783038    2.473646    0.446019
     59          1           0       -3.830743    1.385747    0.560894
     60          1           0       -3.604612    2.872104    1.455969
     61          6           0       -5.162174    2.973698   -0.029345
     62          1           0       -5.906329    2.659057    0.713454
     63          1           0       -5.187611    4.070172   -0.013349
     64          6           0       -5.607193    2.504323   -1.427570
     65          1           0       -4.918220    2.908787   -2.181546
     66          1           0       -6.586086    2.956000   -1.647046
     67          6           0       -5.721952    0.980079   -1.641683
     68          1           0       -4.741747    0.527909   -1.432468
     69          6           0       -6.749176    0.330134   -0.700995
     70          1           0       -7.745618    0.765233   -0.852996
     71          1           0       -6.825377   -0.746847   -0.889141
     72          1           0       -6.485647    0.461642    0.353375
     73          6           0       -6.065851    0.674391   -3.108419
     74          1           0       -7.041929    1.098269   -3.377526
     75          1           0       -6.111475   -0.405432   -3.290507
     76          1           0       -5.320136    1.098548   -3.790788
 ---------------------------------------------------------------------

 SCF Done:  E(RHF) =  -1273.68193073     A.U. after    9 cycles

 Alpha  occ. eigenvalues --  -20.62354 -20.62028 -20.56070 -11.28475 -11.28239
 Alpha  occ. eigenvalues --  -11.24966 -11.24533 -11.23092 -11.22978 -11.22962
 Alpha  occ. eigenvalues --  -11.22922 -11.22682 -11.22678 -11.22410 -11.22370
 Alpha  occ. eigenvalues --  -11.22263 -11.22223 -11.21926 -11.21906 -11.21504
 Alpha  occ. eigenvalues --  -11.21457 -11.21389 -11.21313 -11.21241 -11.21162
 Alpha  occ. eigenvalues --  -11.21048 -11.21011 -11.20950 -11.20841 -11.20794
 Alpha  occ. eigenvalues --   -1.45660  -1.35447  -1.22101  -1.15606  -1.13939
 Alpha  occ. eigenvalues --   -1.09677  -1.07934  -1.05789  -1.05662  -1.03098
 Alpha  occ. eigenvalues --   -1.01563  -0.99318  -0.97986  -0.96343  -0.92977
 Alpha  occ. eigenvalues --   -0.92392  -0.92307  -0.91197  -0.90725  -0.86237
 Alpha  occ. eigenvalues --   -0.84357  -0.82727  -0.82671  -0.79041  -0.78177
 Alpha  occ. eigenvalues --   -0.77074  -0.74812  -0.73014  -0.72122  -0.70841
 Alpha  occ. eigenvalues --   -0.69110  -0.67127  -0.65683  -0.64463  -0.64428
 Alpha  occ. eigenvalues --   -0.64009  -0.63259  -0.62910  -0.62744  -0.61374
 Alpha  occ. eigenvalues --   -0.60520  -0.60162  -0.59138  -0.58856  -0.58510
 Alpha  occ. eigenvalues --   -0.58054  -0.57538  -0.57202  -0.56123  -0.56098
 Alpha  occ. eigenvalues --   -0.55484  -0.55057  -0.54467  -0.54182  -0.53702
 Alpha  occ. eigenvalues --   -0.53235  -0.53102  -0.52911  -0.52230  -0.51909
 Alpha  occ. eigenvalues --   -0.51344  -0.50351  -0.49689  -0.49635  -0.49048
 Alpha  occ. eigenvalues --   -0.48773  -0.48093  -0.47635  -0.47384  -0.47062
 Alpha  occ. eigenvalues --   -0.46797  -0.46249  -0.45504  -0.45294  -0.45071
 Alpha  occ. eigenvalues --   -0.44371  -0.44028  -0.43771  -0.43112  -0.42919
 Alpha  occ. eigenvalues --   -0.42852  -0.42425  -0.41613  -0.40221  -0.38903
 Alpha  occ. eigenvalues --   -0.34690
 Alpha virt. eigenvalues --    0.16026   0.20175   0.21105   0.21675   0.22221
 Alpha virt. eigenvalues --    0.22640   0.23358   0.23726   0.24283   0.25041
 Alpha virt. eigenvalues --    0.25612   0.26040   0.26510   0.26774   0.27105

 Mulliken charges:
               1
     1  C    0.194118
     2  H    0.172049
     3  C   -0.368746
     4  H    0.192269
     5  H    0.155628
     6  C    0.083469
     7  C   -0.044773
     8  C   -0.325442
     9  H    0.168079
    10  H    0.173719
    11  C   -0.341400
    12  H    0.145088
    13  H    0.184081
    14  C   -0.277079
    15  H    0.193442
    16  C    0.191984
    17  H    0.186650
    18  C   -0.209729
    19  H    0.171947
    20  C   -0.157504
    21  H    0.178045
    22  C   -0.329448
    23  H    0.164135
    24  H    0.165441
    25  C   -0.298426
    26  H    0.155484
    27  H    0.164076
    28  C   -0.029782
    29  C   -0.153226
    30  H    0.187251
    31  C   -0.325488
    32  H    0.189258
    33  H    0.151043
    34  C   -0.339773
    35  H    0.159966
    36  H    0.171449
    37  C   -0.135657
    38  H    0.155170
    39  C   -0.489956
    40  H    0.159514
    41  H    0.165890
    42  H    0.162899
    43  C   -0.154340
    44  H    0.155961
    45  C   -0.485391
    46  H    0.153304
    47  H    0.164096
    48  H    0.160833
    49  C   -0.482586
    50  H    0.168167
    51  H    0.162952
    52  H    0.169427
    53  O   -0.398361
    54  O   -0.464436
    55  H    0.459505
    56  O   -0.758817
    57  H    0.428762
    58  C   -0.314195
    59  H    0.169242
    60  H    0.151636
    61  C   -0.317533
    62  H    0.159593
    63  H    0.158579
    64  C   -0.302640
    65  H    0.154667
    66  H    0.150958
    67  C   -0.154815
    68  H    0.157594
    69  C   -0.476797
    70  H    0.151981
    71  H    0.158470
    72  H    0.162772
    73  C   -0.471403
    74  H    0.152610
    75  H    0.158113
    76  H    0.156378
 Sum of Mulliken charges =   0.00000

 Dipole moment (field-independent basis, Debye):
    X=              0.4140    Y=              1.3241    Z=             -2.0846  Tot=              2.5040
 Quadrupole moment (field-independent basis, Debye-Ang):
   XX=           -200.0500   YY=           -188.6872   ZZ=           -187.9992
   XY=              2.6676   XZ=            -10.9678   YZ=             -2.3801

 ESP charges:
               1
     1  C    0.543470
     2  H    0.042741
     3  C   -0.509588
     4  H    0.154636
     5  H    0.136664
     6  C    0.163892
     7  C    0.296331
     8  C   -0.015510
     9  H    0.001370
    10  H    0.054136
    11  C   -0.354378
    12  H    0.084622
    13  H    0.092853
    14  C   -0.478407
    15  H    0.163907
    16  C    0.539194
    17  H    0.042701
    18  C   -0.638668
    19  H    0.155055
    20  C   -0.158767
    21  H    0.086943
    22  C    0.040624
    23  H    0.020528
    24  H   -0.003376
    25  C   -0.188274
    26  H    0.020356
    27  H    0.040373
    28  C    0.474262
    29  C    0.517367
    30  H   -0.046556
    31  C   -0.438323
    32  H    0.140308
    33  H    0.076294
    34  C   -0.044048
    35  H    0.055501
    36  H    0.044334
    37  C   -0.295847
    38  H    0.027553
    39  C   -0.581147
    40  H    0.129637
    41  H    0.125595
    42  H    0.120197
    43  C    0.426303
    44  H   -0.043389
    45  C   -0.543223
    46  H    0.103909
    47  H    0.132577
    48  H    0.114937
    49  C   -0.381505
    50  H    0.084459
    51  H    0.092425
    52  H    0.104190
    53  O   -0.297993
    54  O   -0.471529
    55  H    0.444097
    56  O   -0.745621
    57  H    0.425242
    58  C   -0.030576
    59  H   -0.020779
    60  H    0.011781
    61  C   -0.115862
    62  H    0.029804
    63  H    0.034418
    64  C   -0.112374
    65  H    0.000059
    66  H    0.021786
    67  C    0.558184
    68  H   -0.097782
    69  C   -0.454837
    70  H    0.095618
    71  H    0.091309
    72  H    0.101622
    73  C   -0.535245
    74  H    0.109987
    75  H    0.122209
    76  H    0.107244
 Sum of ESP charges =   0.00000

 Normal termination of Gaussian 09 at Wed Apr 26 14:55:50 2017.
