 Gaussian 09, Revision D.01,
 Gaussian 09:  EM64L-G09RevD.01 24-Apr-2013

 ----------------------------------------------------------------------
 #P HF/6-31G* SCF(Conver=6) NoSymm Test Pop=mk IOp(6/33=2) GFInput GFPr
 int
 ----------------------------------------------------------------------

 ----------------------------------------------
 MEP - Input generated by R.E.D.-III.x MOLECULE
 ----------------------------------------------
 Symbolic Z-matrix:
 Charge =  0 Multiplicity = 1

                          Input orientation:
 ---------------------------------------------------------------------
 Center     Atomic      Atomic             Coordinates (Angstroms)
 Number     Number       Type             X           Y           Z
 ---------------------------------------------------------------------
      1          6           0        7.517828    2.149494   -0.060418
      2          1           0        7.419332    2.064763    1.028788
      3          6           0        6.762216    0.984866   -0.719960
      4          1           0        7.153762    0.033324   -0.347080
      5          1           0        6.979458    1.013831   -1.799320
      6          6           0        5.264174    1.062804   -0.489913
      7          6           0        4.580839    2.389094   -0.846138
      8          6           0        5.418944    3.548520   -0.223726
      9          1           0        5.274191    3.529279    0.865046
     10          1           0        5.024352    4.508912   -0.572581
     11          6           0        6.926676    3.484641   -0.512836
     12          1           0        7.118560    3.616168   -1.588024
     13          1           0        7.441828    4.304747    0.000000
     14          6           0        4.607268    0.000000    0.000000
     15          1           0        5.164789   -0.905926    0.230569
     16          6           0        3.130394   -0.044467    0.267063
     17          1           0        2.717601   -1.009566   -0.053055
     18          6           0        2.368853    1.101128   -0.424137
     19          1           0        2.353382    0.827709   -1.488343
     20          6           0        3.130133    2.443024   -0.249213
     21          1           0        3.252976    2.575386    0.835778
     22          6           0        2.305575    3.651036   -0.757430
     23          1           0        2.284196    3.656436   -1.851776
     24          1           0        2.803615    4.581511   -0.461523
     25          6           0        0.851718    3.686899   -0.243884
     26          1           0        0.851843    3.838931    0.844280
     27          1           0        0.347153    4.555428   -0.683496
     28          6           0        0.103933    2.378604   -0.565764
     29          6           0        0.924432    1.226468    0.083250
     30          1           0        0.998345    1.486675    1.147524
     31          6           0        0.000000    0.000000    0.000000
     32          1           0        0.236274   -0.740386    0.769387
     33          1           0        0.100973   -0.500980   -0.971298
     34          6           0       -1.424974    0.600898    0.169804
     35          1           0       -2.081400    0.279635   -0.645282
     36          1           0       -1.900837    0.264041    1.097154
     37          6           0       -1.256491    2.154105    0.182564
     38          1           0       -1.038125    2.423261    1.225112
     39          6           0       -0.035164    2.205025   -2.096015
     40          1           0        0.929994    2.038311   -2.581511
     41          1           0       -0.676777    1.360380   -2.359513
     42          1           0       -0.468389    3.101246   -2.549546
     43          6           0       -2.574621    2.909201   -0.153295
     44          1           0       -3.311150    2.455007    0.526926
     45          6           0       -3.149145    2.713573   -1.571166
     46          1           0       -2.613391    3.305810   -2.318881
     47          1           0       -4.195301    3.039705   -1.590798
     48          1           0       -3.129347    1.668926   -1.895066
     49          6           0        4.567749    2.528108   -2.393330
     50          1           0        4.273091    3.536190   -2.699596
     51          1           0        5.553122    2.336862   -2.824909
     52          1           0        3.873690    1.815293   -2.849292
     53          8           0        2.853803    0.068968    1.690451
     54          8           0        3.352002   -1.137338    2.334064
     55          1           0        4.126277   -0.788179    2.805820
     56          8           0        8.926494    2.065423   -0.290844
     57          1           0        9.091801    2.159580   -1.239514
     58          6           0       -2.549965    4.423945    0.167619
     59          1           0       -1.828052    4.917863   -0.495431
     60          1           0       -3.532099    4.833938   -0.109543
     61          6           0       -2.257768    4.843130    1.621662
     62          1           0       -1.256945    4.507924    1.916285
     63          1           0       -2.224528    5.939851    1.644734
     64          6           0       -3.297273    4.343886    2.639117
     65          1           0       -3.273754    3.246607    2.674783
     66          1           0       -4.300454    4.613722    2.277005
     67          6           0       -3.146773    4.869736    4.086663
     68          1           0       -3.952060    4.392838    4.664835
     69          6           0       -1.816624    4.449387    4.733644
     70          1           0       -0.961248    4.935342    4.250228
     71          1           0       -1.793761    4.727157    5.793617
     72          1           0       -1.665758    3.365389    4.669604
     73          6           0       -3.357194    6.389334    4.193592
     74          1           0       -2.556499    6.946830    3.694099
     75          1           0       -3.369348    6.707105    5.242470
     76          1           0       -4.308880    6.693099    3.741796
 ---------------------------------------------------------------------

 SCF Done:  E(RHF) =  -1273.67538620     A.U. after    9 cycles

 Alpha  occ. eigenvalues --  -20.62351 -20.62025 -20.56071 -11.28474 -11.28242
 Alpha  occ. eigenvalues --  -11.24975 -11.24538 -11.23093 -11.23003 -11.22968
 Alpha  occ. eigenvalues --  -11.22937 -11.22681 -11.22675 -11.22423 -11.22411
 Alpha  occ. eigenvalues --  -11.22311 -11.22261 -11.21932 -11.21859 -11.21584
 Alpha  occ. eigenvalues --  -11.21414 -11.21379 -11.21312 -11.21310 -11.21087
 Alpha  occ. eigenvalues --  -11.20928 -11.20900 -11.20897 -11.20875 -11.20761
 Alpha  occ. eigenvalues --   -1.45657  -1.35449  -1.22093  -1.15599  -1.13899
 Alpha  occ. eigenvalues --   -1.09457  -1.07877  -1.05798  -1.05670  -1.03108
 Alpha  occ. eigenvalues --   -1.01521  -0.99428  -0.97949  -0.96402  -0.92596
 Alpha  occ. eigenvalues --   -0.92424  -0.92274  -0.91569  -0.90589  -0.86240
 Alpha  occ. eigenvalues --   -0.84193  -0.83087  -0.82623  -0.79202  -0.78441
 Alpha  occ. eigenvalues --   -0.76965  -0.74683  -0.73071  -0.71630  -0.70654
 Alpha  occ. eigenvalues --   -0.68980  -0.67097  -0.65174  -0.64675  -0.64375
 Alpha  occ. eigenvalues --   -0.63794  -0.62902  -0.62793  -0.62410  -0.61713
 Alpha  occ. eigenvalues --   -0.61188  -0.59867  -0.59202  -0.58932  -0.58842
 Alpha  occ. eigenvalues --   -0.58013  -0.57652  -0.57232  -0.56118  -0.55986
 Alpha  occ. eigenvalues --   -0.55776  -0.54939  -0.54372  -0.54178  -0.53874
 Alpha  occ. eigenvalues --   -0.53359  -0.53156  -0.53046  -0.52042  -0.51415
 Alpha  occ. eigenvalues --   -0.50961  -0.50535  -0.49950  -0.49674  -0.49077
 Alpha  occ. eigenvalues --   -0.48578  -0.48083  -0.47947  -0.47493  -0.47029
 Alpha  occ. eigenvalues --   -0.46852  -0.46219  -0.45413  -0.45206  -0.44953
 Alpha  occ. eigenvalues --   -0.44371  -0.44339  -0.43312  -0.43241  -0.42855
 Alpha  occ. eigenvalues --   -0.42486  -0.42106  -0.41591  -0.40174  -0.38867
 Alpha  occ. eigenvalues --   -0.34693
 Alpha virt. eigenvalues --    0.16021   0.20112   0.20917   0.21637   0.22219
 Alpha virt. eigenvalues --    0.22647   0.23128   0.23854   0.24295   0.24861
 Alpha virt. eigenvalues --    0.25112   0.26002   0.26549   0.26883   0.27141

 Mulliken charges:
               1
     1  C    0.194093
     2  H    0.172027
     3  C   -0.368797
     4  H    0.192304
     5  H    0.155704
     6  C    0.083650
     7  C   -0.044864
     8  C   -0.325443
     9  H    0.168038
    10  H    0.173689
    11  C   -0.341397
    12  H    0.145131
    13  H    0.184086
    14  C   -0.277753
    15  H    0.193548
    16  C    0.193114
    17  H    0.186783
    18  C   -0.210361
    19  H    0.172003
    20  C   -0.157523
    21  H    0.177943
    22  C   -0.329387
    23  H    0.165761
    24  H    0.165341
    25  C   -0.302081
    26  H    0.156548
    27  H    0.162192
    28  C   -0.022933
    29  C   -0.156453
    30  H    0.187925
    31  C   -0.325379
    32  H    0.188109
    33  H    0.151615
    34  C   -0.328104
    35  H    0.159066
    36  H    0.165993
    37  C   -0.156503
    38  H    0.161896
    39  C   -0.487350
    40  H    0.158275
    41  H    0.167452
    42  H    0.161499
    43  C   -0.147822
    44  H    0.158591
    45  C   -0.481430
    46  H    0.155355
    47  H    0.158049
    48  H    0.160232
    49  C   -0.482485
    50  H    0.168262
    51  H    0.162909
    52  H    0.169503
    53  O   -0.398583
    54  O   -0.464251
    55  H    0.459451
    56  O   -0.758776
    57  H    0.428771
    58  C   -0.302665
    59  H    0.154272
    60  H    0.151822
    61  C   -0.322013
    62  H    0.162706
    63  H    0.158724
    64  C   -0.305409
    65  H    0.156437
    66  H    0.149996
    67  C   -0.145834
    68  H    0.155470
    69  C   -0.477410
    70  H    0.155419
    71  H    0.158508
    72  H    0.158778
    73  C   -0.476150
    74  H    0.155273
    75  H    0.158277
    76  H    0.156567
 Sum of Mulliken charges =   0.00000

 Dipole moment (field-independent basis, Debye):
    X=              0.2966    Y=              1.3362    Z=             -2.0351  Tot=              2.4525
 Quadrupole moment (field-independent basis, Debye-Ang):
   XX=           -198.8290   YY=           -188.9844   ZZ=           -187.8903
   XY=              2.8178   XZ=            -11.2479   YZ=             -2.4642

 ESP charges:
               1
     1  C    0.537956
     2  H    0.043259
     3  C   -0.491719
     4  H    0.151231
     5  H    0.132994
     6  C    0.131501
     7  C    0.372110
     8  C   -0.014840
     9  H   -0.001206
    10  H    0.049085
    11  C   -0.356548
    12  H    0.082863
    13  H    0.094443
    14  C   -0.481900
    15  H    0.168133
    16  C    0.538863
    17  H    0.034657
    18  C   -0.549167
    19  H    0.140343
    20  C   -0.243428
    21  H    0.105491
    22  C   -0.008819
    23  H    0.036176
    24  H    0.021276
    25  C   -0.301335
    26  H    0.074449
    27  H    0.046412
    28  C    0.748828
    29  C    0.280370
    30  H   -0.057391
    31  C   -0.187540
    32  H    0.094642
    33  H    0.022126
    34  C   -0.252985
    35  H    0.072791
    36  H    0.064478
    37  C   -0.109715
    38  H    0.022141
    39  C   -0.665070
    40  H    0.135072
    41  H    0.146049
    42  H    0.127045
    43  C    0.388717
    44  H   -0.029299
    45  C   -0.522951
    46  H    0.113247
    47  H    0.112650
    48  H    0.111806
    49  C   -0.398029
    50  H    0.087406
    51  H    0.092765
    52  H    0.107556
    53  O   -0.280138
    54  O   -0.471199
    55  H    0.439847
    56  O   -0.745218
    57  H    0.425011
    58  C   -0.373039
    59  H    0.050363
    60  H    0.092624
    61  C    0.222693
    62  H   -0.087889
    63  H   -0.002603
    64  C   -0.300659
    65  H    0.047373
    66  H    0.051800
    67  C    0.476961
    68  H   -0.056893
    69  C   -0.447016
    70  H    0.107323
    71  H    0.095780
    72  H    0.097141
    73  C   -0.457062
    74  H    0.101114
    75  H    0.100370
    76  H    0.096328
 Sum of ESP charges =   0.00000

 Normal termination of Gaussian 09 at Wed Apr 26 13:22:27 2017.
