 Gaussian 09, Revision D.01,
 Gaussian 09:  EM64L-G09RevD.01 24-Apr-2013

 ----------------------------------------------------------------------
 #P HF/6-31G* SCF(Conver=6) NoSymm Test Pop=mk IOp(6/33=2) GFInput GFPr
 int
 ----------------------------------------------------------------------

 ----------------------------------------------
 MEP - Input generated by R.E.D.-III.x MOLECULE
 ----------------------------------------------
 Symbolic Z-matrix:
 Charge =  0 Multiplicity = 1

                          Input orientation:
 ---------------------------------------------------------------------
 Center     Atomic      Atomic             Coordinates (Angstroms)
 Number     Number       Type             X           Y           Z
 ---------------------------------------------------------------------
      1          6           0        1.012299   -0.826394   -1.716127
      2          1           0        1.113370    0.155515   -2.193850
      3          6           0        2.265265   -1.661039   -2.027970
      4          1           0        2.393713   -1.741103   -3.111837
      5          1           0        2.089842   -2.681811   -1.653668
      6          6           0        3.514072   -1.082054   -1.391551
      7          6           0        3.454602   -0.790810    0.112130
      8          6           0        2.133937   -0.011145    0.399481
      9          1           0        2.243799    1.006046    0.000000
     10          1           0        2.002953    0.091787    1.481991
     11          6           0        0.867736   -0.636788   -0.206215
     12          1           0        0.659883   -1.611791    0.259197
     13          1           0        0.000000    0.000000    0.000000
     14          6           0        4.598426   -0.842496   -2.144477
     15          1           0        4.561509   -1.037360   -3.214804
     16          6           0        5.876093   -0.250819   -1.627140
     17          1           0        6.739883   -0.702941   -2.126761
     18          6           0        6.001899   -0.374962   -0.096423
     19          1           0        6.147413   -1.447784    0.098433
     20          6           0        4.671247    0.099469    0.549608
     21          1           0        4.486314    1.096863    0.124296
     22          6           0        4.770515    0.284335    2.081492
     23          1           0        4.759893   -0.688401    2.583376
     24          1           0        3.881806    0.816536    2.439931
     25          6           0        6.022344    1.053331    2.545853
     26          1           0        5.978701    2.088684    2.178874
     27          1           0        6.007128    1.108581    3.638634
     28          6           0        7.314210    0.398178    2.019871
     29          6           0        7.206212    0.394435    0.466370
     30          1           0        7.061805    1.446416    0.181707
     31          6           0        8.615630    0.000000    0.000000
     32          1           0        8.817828    0.325108   -1.022127
     33          1           0        8.741202   -1.090221    0.026557
     34          6           0        9.545963    0.692801    1.032116
     35          1           0       10.295823   -0.008042    1.418889
     36          1           0       10.100588    1.513809    0.568305
     37          6           0        8.638135    1.219958    2.196435
     38          1           0        8.377522    2.267198    1.976065
     39          6           0        7.487763   -1.022558    2.606418
     40          1           0        6.697445   -1.706483    2.286505
     41          1           0        8.440570   -1.472324    2.312195
     42          1           0        7.466474   -0.995233    3.701064
     43          6           0        9.368621    1.219904    3.565088
     44          1           0        9.703602    0.190744    3.766666
     45          6           0        8.474186    1.665424    4.735714
     46          1           0        8.037283    2.653025    4.541076
     47          1           0        9.045144    1.733912    5.666499
     48          1           0        7.653544    0.967958    4.917758
     49          6           0        3.434537   -2.146633    0.870104
     50          1           0        3.201561   -2.005642    1.929631
     51          1           0        2.681180   -2.826011    0.464090
     52          1           0        4.400056   -2.656519    0.797317
     53          8           0        5.806706    1.133689   -2.083191
     54          8           0        7.159892    1.633304   -2.342407
     55          1           0        7.066720    1.872244   -3.278646
     56          8           0       -0.159117   -1.387910   -2.313969
     57          1           0       -0.330516   -2.250011   -1.909544
     58          6           0       10.637342    2.106150    3.491703
     59          1           0       11.193517    1.868125    2.577960
     60          1           0       10.327001    3.157790    3.392108
     61          6           0       11.608307    1.972933    4.676744
     62          1           0       11.115140    2.278837    5.606322
     63          1           0       11.871858    0.913492    4.799405
     64          6           0       12.883574    2.808255    4.476802
     65          1           0       12.594161    3.857501    4.319624
     66          1           0       13.371759    2.487158    3.545256
     67          6           0       13.929996    2.759530    5.614540
     68          1           0       14.759813    3.403856    5.288034
     69          6           0       13.399582    3.343222    6.934728
     70          1           0       12.606376    2.719835    7.363363
     71          1           0       14.199994    3.410700    7.680456
     72          1           0       12.992004    4.350751    6.790310
     73          6           0       14.509280    1.350999    5.826881
     74          1           0       13.754351    0.657793    6.215506
     75          1           0       15.334216    1.373249    6.548197
     76          1           0       14.896144    0.933128    4.889926
 ---------------------------------------------------------------------

 SCF Done:  E(RHF) =  -1273.67971521     A.U. after    9 cycles

 Alpha  occ. eigenvalues --  -20.62368 -20.62247 -20.55783 -11.28565 -11.27904
 Alpha  occ. eigenvalues --  -11.24640 -11.24280 -11.22815 -11.22607 -11.22464
 Alpha  occ. eigenvalues --  -11.22422 -11.22401 -11.22383 -11.22380 -11.22357
 Alpha  occ. eigenvalues --  -11.22049 -11.21981 -11.21615 -11.21490 -11.21332
 Alpha  occ. eigenvalues --  -11.21204 -11.21095 -11.21061 -11.20927 -11.20901
 Alpha  occ. eigenvalues --  -11.20897 -11.20849 -11.20744 -11.20594 -11.20363
 Alpha  occ. eigenvalues --   -1.45229  -1.35155  -1.22351  -1.15375  -1.13593
 Alpha  occ. eigenvalues --   -1.09388  -1.07762  -1.05533  -1.05475  -1.02823
 Alpha  occ. eigenvalues --   -1.01387  -0.99275  -0.97583  -0.96033  -0.92633
 Alpha  occ. eigenvalues --   -0.92259  -0.92020  -0.90735  -0.90467  -0.85984
 Alpha  occ. eigenvalues --   -0.84090  -0.82501  -0.82413  -0.78743  -0.77879
 Alpha  occ. eigenvalues --   -0.76712  -0.74461  -0.73430  -0.71965  -0.69944
 Alpha  occ. eigenvalues --   -0.68560  -0.66755  -0.66473  -0.64862  -0.63780
 Alpha  occ. eigenvalues --   -0.63662  -0.62687  -0.62215  -0.62043  -0.61713
 Alpha  occ. eigenvalues --   -0.60860  -0.60023  -0.59299  -0.58907  -0.58219
 Alpha  occ. eigenvalues --   -0.57728  -0.57354  -0.56368  -0.56001  -0.55718
 Alpha  occ. eigenvalues --   -0.55423  -0.54778  -0.54154  -0.53929  -0.53474
 Alpha  occ. eigenvalues --   -0.53191  -0.52779  -0.52399  -0.52082  -0.51393
 Alpha  occ. eigenvalues --   -0.51002  -0.50528  -0.50362  -0.49051  -0.48590
 Alpha  occ. eigenvalues --   -0.48154  -0.47911  -0.47421  -0.47045  -0.46547
 Alpha  occ. eigenvalues --   -0.46292  -0.45788  -0.45286  -0.44943  -0.44731
 Alpha  occ. eigenvalues --   -0.44551  -0.44288  -0.43780  -0.43121  -0.43010
 Alpha  occ. eigenvalues --   -0.42538  -0.42133  -0.41367  -0.39845  -0.38202
 Alpha  occ. eigenvalues --   -0.34419
 Alpha virt. eigenvalues --    0.15900   0.20949   0.21514   0.21989   0.22413
 Alpha virt. eigenvalues --    0.23184   0.23554   0.24596   0.24810   0.25263
 Alpha virt. eigenvalues --    0.25905   0.26211   0.26675   0.26884   0.27170

 Mulliken charges:
               1
     1  C    0.192566
     2  H    0.177320
     3  C   -0.368057
     4  H    0.192577
     5  H    0.154644
     6  C    0.085543
     7  C   -0.045316
     8  C   -0.326106
     9  H    0.171956
    10  H    0.173096
    11  C   -0.341690
    12  H    0.143607
    13  H    0.183596
    14  C   -0.249585
    15  H    0.187363
    16  C    0.158848
    17  H    0.189075
    18  C   -0.180957
    19  H    0.164221
    20  C   -0.169134
    21  H    0.188309
    22  C   -0.328655
    23  H    0.162630
    24  H    0.165046
    25  C   -0.298826
    26  H    0.156229
    27  H    0.163371
    28  C   -0.029518
    29  C   -0.164617
    30  H    0.193595
    31  C   -0.325665
    32  H    0.192551
    33  H    0.146724
    34  C   -0.335342
    35  H    0.155674
    36  H    0.169190
    37  C   -0.136362
    38  H    0.155956
    39  C   -0.491215
    40  H    0.159978
    41  H    0.165764
    42  H    0.161736
    43  C   -0.148358
    44  H    0.150941
    45  C   -0.484930
    46  H    0.153534
    47  H    0.162272
    48  H    0.160994
    49  C   -0.481876
    50  H    0.167617
    51  H    0.161733
    52  H    0.169433
    53  O   -0.393238
    54  O   -0.471529
    55  H    0.460592
    56  O   -0.759125
    57  H    0.428010
    58  C   -0.307537
    59  H    0.165951
    60  H    0.148122
    61  C   -0.314507
    62  H    0.158830
    63  H    0.153402
    64  C   -0.300694
    65  H    0.151792
    66  H    0.151172
    67  C   -0.146229
    68  H    0.155084
    69  C   -0.476204
    70  H    0.155410
    71  H    0.157970
    72  H    0.156971
    73  C   -0.476015
    74  H    0.156047
    75  H    0.157711
    76  H    0.156536
 Sum of Mulliken charges =   0.00000

 Dipole moment (field-independent basis, Debye):
    X=              0.6188    Y=             -1.6439    Z=              0.3540  Tot=              1.7918
 Quadrupole moment (field-independent basis, Debye-Ang):
   XX=           -193.4864   YY=           -187.3409   ZZ=           -189.5747
   XY=             -4.2500   XZ=            -11.5502   YZ=             -1.3130

 ESP charges:
               1
     1  C    0.558380
     2  H    0.037359
     3  C   -0.478853
     4  H    0.143861
     5  H    0.125430
     6  C    0.194496
     7  C    0.257946
     8  C   -0.008340
     9  H   -0.000111
    10  H    0.051778
    11  C   -0.349393
    12  H    0.079470
    13  H    0.091204
    14  C   -0.565356
    15  H    0.191974
    16  C    0.647890
    17  H   -0.013993
    18  C   -0.433961
    19  H    0.101997
    20  C   -0.164148
    21  H    0.089989
    22  C    0.049483
    23  H    0.009585
    24  H   -0.002545
    25  C   -0.181002
    26  H    0.010327
    27  H    0.022645
    28  C    0.560957
    29  C    0.234780
    30  H    0.016365
    31  C   -0.239150
    32  H    0.074395
    33  H    0.037632
    34  C   -0.098540
    35  H    0.043485
    36  H    0.052310
    37  C   -0.154665
    38  H    0.004395
    39  C   -0.594272
    40  H    0.132018
    41  H    0.129685
    42  H    0.117402
    43  C    0.194344
    44  H   -0.002274
    45  C   -0.496990
    46  H    0.113568
    47  H    0.106756
    48  H    0.123423
    49  C   -0.428412
    50  H    0.101486
    51  H    0.107006
    52  H    0.110101
    53  O   -0.335685
    54  O   -0.479888
    55  H    0.447999
    56  O   -0.750173
    57  H    0.423244
    58  C   -0.111347
    59  H    0.009355
    60  H    0.042043
    61  C    0.155367
    62  H    0.000169
    63  H   -0.027237
    64  C   -0.264465
    65  H    0.033380
    66  H    0.048299
    67  C    0.441774
    68  H   -0.058353
    69  C   -0.393633
    70  H    0.081316
    71  H    0.085479
    72  H    0.085341
    73  C   -0.413130
    74  H    0.090245
    75  H    0.089460
    76  H    0.088522
 Sum of ESP charges =   0.00000

 Normal termination of Gaussian 09 at Wed Apr 26 14:26:42 2017.
