 Gaussian 09, Revision D.01,
 Gaussian 09:  EM64L-G09RevD.01 24-Apr-2013

 ----------------------------------------------------------------------
 #P HF/6-31G* SCF(Conver=6) NoSymm Test Pop=mk IOp(6/33=2) GFInput GFPr
 int
 ----------------------------------------------------------------------

 ----------------------------------------------
 MEP - Input generated by R.E.D.-III.x MOLECULE
 ----------------------------------------------
 Symbolic Z-matrix:
 Charge =  0 Multiplicity = 1

                          Input orientation:
 ---------------------------------------------------------------------
 Center     Atomic      Atomic             Coordinates (Angstroms)
 Number     Number       Type             X           Y           Z
 ---------------------------------------------------------------------
      1          6           0        1.013359   -0.879346   -1.689502
      2          1           0        1.142429    0.091994   -2.182532
      3          6           0        2.249792   -1.747753   -1.971119
      4          1           0        2.387568   -1.853451   -3.051690
      5          1           0        2.046256   -2.756710   -1.579141
      6          6           0        3.507860   -1.187485   -1.333425
      7          6           0        3.435083   -0.863043    0.164051
      8          6           0        2.129450   -0.048440    0.420691
      9          1           0        2.265158    0.957212    0.000000
     10          1           0        1.989991    0.082350    1.499203
     11          6           0        0.856049   -0.658711   -0.185059
     12          1           0        0.622990   -1.620062    0.296239
     13          1           0        0.000000    0.000000    0.000000
     14          6           0        4.609169   -1.003177   -2.077889
     15          1           0        4.580457   -1.255885   -3.136200
     16          6           0        5.910198   -0.460378   -1.560987
     17          1           0        6.750420   -1.022409   -1.988116
     18          6           0        5.994791   -0.487815   -0.024100
     19          1           0        6.144516   -1.545987    0.231933
     20          6           0        4.664188    0.009203    0.602635
     21          1           0        4.492526    1.010174    0.180279
     22          6           0        4.773039    0.182252    2.137355
     23          1           0        4.785536   -0.798063    2.624350
     24          1           0        3.877082    0.691704    2.510398
     25          6           0        6.015048    0.969434    2.602870
     26          1           0        5.943177    2.010371    2.257325
     27          1           0        6.016205    1.001947    3.698399
     28          6           0        7.316694    0.351594    2.056370
     29          6           0        7.181994    0.329932    0.506140
     30          1           0        6.986084    1.371309    0.217794
     31          6           0        8.596250    0.000000    0.000000
     32          1           0        8.759515    0.364670   -1.017966
     33          1           0        8.763788   -1.084559   -0.015319
     34          6           0        9.527296    0.691841    1.036578
     35          1           0       10.264676   -0.015887    1.428858
     36          1           0       10.098414    1.511361    0.587068
     37          6           0        8.605120    1.236855    2.172882
     38          1           0        8.276449    2.236184    1.849627
     39          6           0        7.528320   -1.061765    2.646112
     40          1           0        6.769782   -1.770196    2.302795
     41          1           0        8.502333   -1.479524    2.378470
     42          1           0        7.470043   -1.037223    3.738306
     43          6           0        9.362727    1.504360    3.506884
     44          1           0       10.201478    2.142914    3.189424
     45          6           0        9.998737    0.287277    4.207366
     46          1           0        9.260034   -0.302096    4.759238
     47          1           0       10.754527    0.615535    4.928259
     48          1           0       10.501460   -0.381946    3.503186
     49          6           0        3.375893   -2.202646    0.948437
     50          1           0        3.123859   -2.036897    2.000028
     51          1           0        2.619913   -2.877280    0.539657
     52          1           0        4.333954   -2.729920    0.905199
     53          8           0        6.094826    0.924665   -1.964741
     54          8           0        6.269553    0.943392   -3.409268
     55          1           0        5.425331    1.332350   -3.692047
     56          8           0       -0.164208   -1.422513   -2.291840
     57          1           0       -0.356007   -2.277784   -1.882096
     58          6           0        8.518962    2.336601    4.499765
     59          1           0        8.011522    3.137525    3.946328
     60          1           0        7.721094    1.703423    4.908391
     61          6           0        9.281994    2.952521    5.690620
     62          1           0        8.553017    3.471584    6.326004
     63          1           0        9.691886    2.150304    6.317297
     64          6           0       10.429077    3.918696    5.338253
     65          1           0       11.218689    3.368900    4.808325
     66          1           0       10.887815    4.263361    6.276924
     67          6           0       10.054736    5.159608    4.500365
     68          1           0        9.610394    4.815773    3.555074
     69          6           0        9.024067    6.055507    5.205772
     70          1           0        9.410593    6.407129    6.171311
     71          1           0        8.793465    6.938788    4.599370
     72          1           0        8.081725    5.531468    5.395289
     73          6           0       11.316836    5.963684    4.149023
     74          1           0       11.804998    6.341370    5.056701
     75          1           0       11.076632    6.826726    3.517646
     76          1           0       12.046580    5.347562    3.611112
 ---------------------------------------------------------------------

 SCF Done:  E(RHF) =  -1273.67662966     A.U. after    9 cycles

 Alpha  occ. eigenvalues --  -20.62347 -20.62021 -20.56069 -11.28470 -11.28239
 Alpha  occ. eigenvalues --  -11.24966 -11.24533 -11.23089 -11.22988 -11.22961
 Alpha  occ. eigenvalues --  -11.22927 -11.22678 -11.22643 -11.22407 -11.22360
 Alpha  occ. eigenvalues --  -11.22358 -11.22256 -11.21942 -11.21906 -11.21525
 Alpha  occ. eigenvalues --  -11.21521 -11.21405 -11.21345 -11.21307 -11.21088
 Alpha  occ. eigenvalues --  -11.20974 -11.20961 -11.20905 -11.20901 -11.20807
 Alpha  occ. eigenvalues --   -1.45654  -1.35446  -1.22089  -1.15592  -1.13904
 Alpha  occ. eigenvalues --   -1.09645  -1.07898  -1.05787  -1.05647  -1.03091
 Alpha  occ. eigenvalues --   -1.01575  -0.99269  -0.97955  -0.96323  -0.92678
 Alpha  occ. eigenvalues --   -0.92414  -0.92348  -0.91843  -0.90596  -0.86234
 Alpha  occ. eigenvalues --   -0.84361  -0.83078  -0.82625  -0.78772  -0.78439
 Alpha  occ. eigenvalues --   -0.76997  -0.74227  -0.73284  -0.71894  -0.70762
 Alpha  occ. eigenvalues --   -0.69033  -0.67100  -0.65270  -0.64860  -0.64406
 Alpha  occ. eigenvalues --   -0.63789  -0.63457  -0.62952  -0.62613  -0.61362
 Alpha  occ. eigenvalues --   -0.61139  -0.59695  -0.59187  -0.59031  -0.58400
 Alpha  occ. eigenvalues --   -0.57855  -0.57715  -0.57405  -0.56555  -0.55909
 Alpha  occ. eigenvalues --   -0.55474  -0.54690  -0.54219  -0.53920  -0.53769
 Alpha  occ. eigenvalues --   -0.53352  -0.53232  -0.52877  -0.52183  -0.51853
 Alpha  occ. eigenvalues --   -0.50900  -0.50733  -0.49980  -0.49644  -0.49050
 Alpha  occ. eigenvalues --   -0.48655  -0.48182  -0.47988  -0.47373  -0.47105
 Alpha  occ. eigenvalues --   -0.46763  -0.46171  -0.45469  -0.45307  -0.45101
 Alpha  occ. eigenvalues --   -0.44351  -0.44178  -0.43690  -0.42987  -0.42882
 Alpha  occ. eigenvalues --   -0.42680  -0.42303  -0.41489  -0.40176  -0.38835
 Alpha  occ. eigenvalues --   -0.34688
 Alpha virt. eigenvalues --    0.16027   0.19811   0.20995   0.21693   0.22320
 Alpha virt. eigenvalues --    0.22991   0.23344   0.23939   0.24256   0.24587
 Alpha virt. eigenvalues --    0.25519   0.25657   0.26401   0.26723   0.27025

 Mulliken charges:
               1
     1  C    0.194121
     2  H    0.172007
     3  C   -0.368763
     4  H    0.192276
     5  H    0.155688
     6  C    0.083563
     7  C   -0.044795
     8  C   -0.325410
     9  H    0.168023
    10  H    0.173719
    11  C   -0.341418
    12  H    0.145109
    13  H    0.184052
    14  C   -0.277663
    15  H    0.193502
    16  C    0.192965
    17  H    0.186720
    18  C   -0.210066
    19  H    0.171893
    20  C   -0.157365
    21  H    0.177937
    22  C   -0.330003
    23  H    0.165267
    24  H    0.165270
    25  C   -0.298925
    26  H    0.155064
    27  H    0.162226
    28  C   -0.023548
    29  C   -0.156101
    30  H    0.187880
    31  C   -0.325615
    32  H    0.188509
    33  H    0.151437
    34  C   -0.328597
    35  H    0.159045
    36  H    0.166924
    37  C   -0.153157
    38  H    0.155656
    39  C   -0.486352
    40  H    0.158259
    41  H    0.167064
    42  H    0.161076
    43  C   -0.140605
    44  H    0.157033
    45  C   -0.486658
    46  H    0.155469
    47  H    0.162387
    48  H    0.161072
    49  C   -0.482540
    50  H    0.168228
    51  H    0.162890
    52  H    0.169468
    53  O   -0.398536
    54  O   -0.464308
    55  H    0.459424
    56  O   -0.758803
    57  H    0.428768
    58  C   -0.312715
    59  H    0.156652
    60  H    0.154495
    61  C   -0.316073
    62  H    0.158523
    63  H    0.159359
    64  C   -0.304129
    65  H    0.155523
    66  H    0.151427
    67  C   -0.151800
    68  H    0.155947
    69  C   -0.476872
    70  H    0.151981
    71  H    0.158528
    72  H    0.161737
    73  C   -0.471655
    74  H    0.152285
    75  H    0.158473
    76  H    0.157552
 Sum of Mulliken charges =   0.00000

 Dipole moment (field-independent basis, Debye):
    X=             -1.0052    Y=             -1.4878    Z=              1.8030  Tot=              2.5446
 Quadrupole moment (field-independent basis, Debye-Ang):
   XX=           -211.7700   YY=           -186.9876   ZZ=           -195.2154
   XY=             -6.4546   XZ=              5.4010   YZ=             -0.6993

 ESP charges:
               1
     1  C    0.557477
     2  H    0.038248
     3  C   -0.527043
     4  H    0.157153
     5  H    0.138982
     6  C    0.236896
     7  C    0.203141
     8  C   -0.019407
     9  H    0.010269
    10  H    0.064810
    11  C   -0.355620
    12  H    0.088324
    13  H    0.092703
    14  C   -0.529470
    15  H    0.170663
    16  C    0.596748
    17  H    0.022232
    18  C   -0.533226
    19  H    0.133670
    20  C   -0.269670
    21  H    0.115566
    22  C    0.137766
    23  H    0.000845
    24  H   -0.010235
    25  C   -0.246809
    26  H    0.022201
    27  H    0.019641
    28  C    0.663074
    29  C    0.287979
    30  H   -0.033073
    31  C   -0.174299
    32  H    0.088396
    33  H    0.020631
    34  C   -0.222406
    35  H    0.072868
    36  H    0.062964
    37  C   -0.204786
    38  H    0.019542
    39  C   -0.673207
    40  H    0.146149
    41  H    0.156286
    42  H    0.133158
    43  C    0.425483
    44  H   -0.031140
    45  C   -0.568003
    46  H    0.120896
    47  H    0.138960
    48  H    0.119955
    49  C   -0.384600
    50  H    0.094589
    51  H    0.097703
    52  H    0.111769
    53  O   -0.304836
    54  O   -0.471575
    55  H    0.445422
    56  O   -0.747394
    57  H    0.424336
    58  C   -0.225098
    59  H    0.021290
    60  H    0.058844
    61  C   -0.036168
    62  H    0.031531
    63  H    0.033451
    64  C   -0.254590
    65  H    0.051647
    66  H    0.056233
    67  C    0.537209
    68  H   -0.066630
    69  C   -0.447975
    70  H    0.098410
    71  H    0.089493
    72  H    0.105062
    73  C   -0.515656
    74  H    0.113338
    75  H    0.115618
    76  H    0.103293
 Sum of ESP charges =   0.00000

 Normal termination of Gaussian 09 at Wed Apr 26 14:13:06 2017.
