 Gaussian 09, Revision D.01,
 Gaussian 09:  EM64L-G09RevD.01 24-Apr-2013

 ----------------------------------------------------------------------
 #P HF/6-31G* SCF(Conver=6) NoSymm Test Pop=mk IOp(6/33=2) GFInput GFPr
 int
 ----------------------------------------------------------------------

 ----------------------------------------------
 MEP - Input generated by R.E.D.-III.x MOLECULE
 ----------------------------------------------
 Symbolic Z-matrix:
 Charge =  0 Multiplicity = 1

                          Input orientation:
 ---------------------------------------------------------------------
 Center     Atomic      Atomic             Coordinates (Angstroms)
 Number     Number       Type             X           Y           Z
 ---------------------------------------------------------------------
      1          6           0        1.014220   -0.883042   -1.687015
      2          1           0        1.144404    0.087320   -2.181669
      3          6           0        2.250101   -1.753025   -1.966168
      4          1           0        2.388861   -1.860376   -3.046456
      5          1           0        2.045033   -2.761269   -1.573068
      6          6           0        3.508200   -1.193266   -1.328099
      7          6           0        3.434270   -0.865116    0.168364
      8          6           0        2.129139   -0.049110    0.422547
      9          1           0        2.265986    0.955612    0.000000
     10          1           0        1.989060    0.083969    1.500727
     11          6           0        0.855789   -0.659578   -0.183114
     12          1           0        0.621750   -1.619925    0.299710
     13          1           0        0.000000    0.000000    0.000000
     14          6           0        4.611023   -1.012797   -2.071250
     15          1           0        4.583622   -1.268192   -3.128951
     16          6           0        5.911938   -0.469924   -1.554188
     17          1           0        6.751985   -1.034746   -1.977921
     18          6           0        5.994342   -0.490487   -0.016956
     19          1           0        6.145727   -1.547040    0.245549
     20          6           0        4.663397    0.007700    0.605405
     21          1           0        4.492188    1.007701    0.180577
     22          6           0        4.774108    0.183180    2.138607
     23          1           0        4.784488   -0.796539    2.627020
     24          1           0        3.880117    0.695462    2.512572
     25          6           0        6.018114    0.967549    2.603632
     26          1           0        5.951466    2.007114    2.252380
     27          1           0        6.009485    1.007341    3.697332
     28          6           0        7.322221    0.347560    2.059892
     29          6           0        7.181293    0.329184    0.511810
     30          1           0        6.986037    1.372382    0.227646
     31          6           0        8.589539    0.000000    0.000000
     32          1           0        8.744861    0.348447   -1.024819
     33          1           0        8.764198   -1.083577    0.002342
     34          6           0        9.520291    0.716640    1.016142
     35          1           0       10.294404    0.034215    1.387447
     36          1           0       10.045781    1.552252    0.544952
     37          6           0        8.621256    1.216757    2.199284
     38          1           0        8.318141    2.252729    1.979629
     39          6           0        7.554411   -1.060227    2.654936
     40          1           0        6.761161   -1.763336    2.387917
     41          1           0        8.498646   -1.496136    2.314869
     42          1           0        7.591270   -1.018057    3.748532
     43          6           0        9.381345    1.251402    3.550958
     44          1           0        9.752157    0.234880    3.753754
     45          6           0        8.496217    1.679556    4.735008
     46          1           0        8.027218    2.652495    4.541205
     47          1           0        9.081562    1.771880    5.654654
     48          1           0        7.699548    0.960136    4.937075
     49          6           0        3.374218   -2.203135    0.955400
     50          1           0        3.121547   -2.035593    2.006576
     51          1           0        2.618446   -2.878514    0.547455
     52          1           0        4.332285   -2.730562    0.913490
     53          8           0        6.098956    0.913207   -1.963092
     54          8           0        6.279316    0.925418   -3.407079
     55          1           0        5.438522    1.318394   -3.694417
     56          8           0       -0.163286   -1.426345   -2.289379
     57          1           0       -0.355872   -2.280926   -1.878570
     58          6           0       10.620432    2.175390    3.444232
     59          1           0       11.164413    1.947700    2.520728
     60          1           0       10.276124    3.216354    3.344465
     61          6           0       11.618996    2.080293    4.609305
     62          1           0       11.133227    2.368176    5.548095
     63          1           0       11.929935    1.031711    4.730849
     64          6           0       12.865661    2.950676    4.389070
     65          1           0       12.562500    4.005484    4.302283
     66          1           0       13.311718    2.683573    3.420349
     67          6           0       13.955742    2.835220    5.474135
     68          1           0       14.211841    1.769072    5.575318
     69          6           0       15.227464    3.582309    5.041585
     70          1           0       15.028501    4.655097    4.921924
     71          1           0       16.025309    3.474224    5.785223
     72          1           0       15.606767    3.205765    4.084696
     73          6           0       13.479487    3.337662    6.846891
     74          1           0       13.185485    4.394079    6.792824
     75          1           0       14.278245    3.254152    7.592709
     76          1           0       12.620834    2.770510    7.219840
 ---------------------------------------------------------------------

 SCF Done:  E(RHF) =  -1273.68482042     A.U. after    9 cycles

 Alpha  occ. eigenvalues --  -20.62344 -20.62017 -20.56063 -11.28464 -11.28233
 Alpha  occ. eigenvalues --  -11.24954 -11.24522 -11.23085 -11.22965 -11.22953
 Alpha  occ. eigenvalues --  -11.22910 -11.22671 -11.22667 -11.22399 -11.22395
 Alpha  occ. eigenvalues --  -11.22257 -11.22253 -11.21907 -11.21891 -11.21486
 Alpha  occ. eigenvalues --  -11.21411 -11.21351 -11.21297 -11.21222 -11.21127
 Alpha  occ. eigenvalues --  -11.21018 -11.20953 -11.20947 -11.20819 -11.20790
 Alpha  occ. eigenvalues --   -1.45649  -1.35441  -1.22090  -1.15594  -1.13922
 Alpha  occ. eigenvalues --   -1.09561  -1.08022  -1.05842  -1.05756  -1.03082
 Alpha  occ. eigenvalues --   -1.01630  -0.99555  -0.97974  -0.96344  -0.92930
 Alpha  occ. eigenvalues --   -0.92316  -0.92288  -0.90906  -0.90658  -0.86226
 Alpha  occ. eigenvalues --   -0.83985  -0.82684  -0.82289  -0.78833  -0.77966
 Alpha  occ. eigenvalues --   -0.76943  -0.75886  -0.73733  -0.72058  -0.70823
 Alpha  occ. eigenvalues --   -0.69095  -0.67116  -0.65616  -0.64721  -0.64443
 Alpha  occ. eigenvalues --   -0.63897  -0.63730  -0.62807  -0.61597  -0.61258
 Alpha  occ. eigenvalues --   -0.60639  -0.59892  -0.59501  -0.59115  -0.58702
 Alpha  occ. eigenvalues --   -0.58113  -0.57578  -0.57043  -0.56511  -0.56058
 Alpha  occ. eigenvalues --   -0.55040  -0.54958  -0.54399  -0.53954  -0.53639
 Alpha  occ. eigenvalues --   -0.53193  -0.52963  -0.52815  -0.52049  -0.52015
 Alpha  occ. eigenvalues --   -0.50907  -0.50437  -0.49963  -0.49589  -0.49021
 Alpha  occ. eigenvalues --   -0.48380  -0.48022  -0.47873  -0.47375  -0.46922
 Alpha  occ. eigenvalues --   -0.46347  -0.45976  -0.45569  -0.45115  -0.45002
 Alpha  occ. eigenvalues --   -0.44843  -0.44653  -0.43884  -0.43409  -0.43086
 Alpha  occ. eigenvalues --   -0.42826  -0.42311  -0.41663  -0.40202  -0.38806
 Alpha  occ. eigenvalues --   -0.34680
 Alpha virt. eigenvalues --    0.16036   0.20559   0.21430   0.22124   0.22398
 Alpha virt. eigenvalues --    0.22866   0.23183   0.24242   0.24413   0.25055
 Alpha virt. eigenvalues --    0.25559   0.26099   0.26370   0.26691   0.27151

 Mulliken charges:
               1
     1  C    0.194096
     2  H    0.172053
     3  C   -0.368705
     4  H    0.192256
     5  H    0.155622
     6  C    0.083432
     7  C   -0.044701
     8  C   -0.325418
     9  H    0.168058
    10  H    0.173713
    11  C   -0.341392
    12  H    0.145069
    13  H    0.184053
    14  C   -0.277094
    15  H    0.193442
    16  C    0.192029
    17  H    0.186602
    18  C   -0.209791
    19  H    0.171918
    20  C   -0.157480
    21  H    0.178024
    22  C   -0.329460
    23  H    0.164213
    24  H    0.165370
    25  C   -0.298327
    26  H    0.155321
    27  H    0.164191
    28  C   -0.030151
    29  C   -0.153073
    30  H    0.187186
    31  C   -0.325464
    32  H    0.188914
    33  H    0.150952
    34  C   -0.336204
    35  H    0.157796
    36  H    0.171291
    37  C   -0.136887
    38  H    0.155213
    39  C   -0.489897
    40  H    0.159285
    41  H    0.166114
    42  H    0.163209
    43  C   -0.149119
    44  H    0.151806
    45  C   -0.485035
    46  H    0.153473
    47  H    0.163089
    48  H    0.160868
    49  C   -0.482662
    50  H    0.168158
    51  H    0.162922
    52  H    0.169427
    53  O   -0.398331
    54  O   -0.464454
    55  H    0.459494
    56  O   -0.758820
    57  H    0.428750
    58  C   -0.308476
    59  H    0.166680
    60  H    0.148709
    61  C   -0.309608
    62  H    0.158902
    63  H    0.148550
    64  C   -0.295628
    65  H    0.148214
    66  H    0.152344
    67  C   -0.147278
    68  H    0.151091
    69  C   -0.472491
    70  H    0.152801
    71  H    0.157829
    72  H    0.158068
    73  C   -0.476253
    74  H    0.151907
    75  H    0.158164
    76  H    0.161537
 Sum of Mulliken charges =   0.00000

 Dipole moment (field-independent basis, Debye):
    X=             -0.9658    Y=             -1.5890    Z=              1.7951  Tot=              2.5846
 Quadrupole moment (field-independent basis, Debye-Ang):
   XX=           -211.3749   YY=           -186.5228   ZZ=           -195.6184
   XY=             -8.0309   XZ=              5.3682   YZ=             -1.0902

 ESP charges:
               1
     1  C    0.558282
     2  H    0.038187
     3  C   -0.527674
     4  H    0.157223
     5  H    0.138435
     6  C    0.236737
     7  C    0.216578
     8  C   -0.021425
     9  H    0.010799
    10  H    0.065483
    11  C   -0.359739
    12  H    0.088865
    13  H    0.093966
    14  C   -0.529432
    15  H    0.171963
    16  C    0.570985
    17  H    0.035188
    18  C   -0.513919
    19  H    0.132942
    20  C   -0.270468
    21  H    0.113867
    22  C    0.115449
    23  H    0.004761
    24  H   -0.007223
    25  C   -0.228942
    26  H    0.024663
    27  H    0.028558
    28  C    0.614505
    29  C    0.335884
    30  H   -0.025400
    31  C   -0.376715
    32  H    0.131107
    33  H    0.062738
    34  C   -0.038274
    35  H    0.044259
    36  H    0.037210
    37  C   -0.240329
    38  H    0.020167
    39  C   -0.627207
    40  H    0.141695
    41  H    0.136086
    42  H    0.123834
    43  C    0.234246
    44  H   -0.010415
    45  C   -0.462317
    46  H    0.101993
    47  H    0.095747
    48  H    0.111973
    49  C   -0.390985
    50  H    0.095921
    51  H    0.098971
    52  H    0.111557
    53  O   -0.303682
    54  O   -0.472809
    55  H    0.447431
    56  O   -0.747425
    57  H    0.424657
    58  C   -0.031886
    59  H    0.001076
    60  H    0.025743
    61  C   -0.043951
    62  H    0.057701
    63  H    0.003622
    64  C   -0.237324
    65  H    0.054622
    66  H    0.061524
    67  C    0.452995
    68  H   -0.033606
    69  C   -0.521427
    70  H    0.119531
    71  H    0.122332
    72  H    0.109096
    73  C   -0.478584
    74  H    0.119504
    75  H    0.108788
    76  H    0.091712
 Sum of ESP charges =   0.00000

 Normal termination of Gaussian 09 at Wed Apr 26 14:44:43 2017.
