 Gaussian 09, Revision D.01,
 Gaussian 09:  EM64L-G09RevD.01 24-Apr-2013

 ----------------------------------------------------------------------
 #P HF/6-31G* SCF(Conver=6) NoSymm Test Pop=mk IOp(6/33=2) GFInput GFPr
 int
 ----------------------------------------------------------------------

 ----------------------------------------------
 MEP - Input generated by R.E.D.-III.x MOLECULE
 ----------------------------------------------
 Symbolic Z-matrix:
 Charge =  0 Multiplicity = 1

                          Input orientation:
 ---------------------------------------------------------------------
 Center     Atomic      Atomic             Coordinates (Angstroms)
 Number     Number       Type             X           Y           Z
 ---------------------------------------------------------------------
      1          6           0        1.760941   -1.246797    0.004776
      2          1           0        1.878317   -1.178923   -1.083317
      3          6           0        3.151967   -1.273571    0.655547
      4          1           0        3.731311   -2.110489    0.253633
      5          1           0        3.012707   -1.473446    1.730304
      6          6           0        3.912574    0.026701    0.470146
      7          6           0        3.180669    1.320012    0.850944
      8          6           0        1.745764    1.267469    0.239751
      9          1           0        1.832505    1.404375   -0.846484
     10          1           0        1.161610    2.114621    0.615221
     11          6           0        0.973967   -0.034647    0.501318
     12          1           0        0.770744   -0.154092    1.576050
     13          1           0        0.000000    0.000000    0.000000
     14          6           0        5.167872    0.000000    0.000000
     15          1           0        5.614688   -0.951938   -0.282708
     16          6           0        6.043431    1.201102   -0.185824
     17          1           0        7.025558    1.004055    0.268464
     18          6           0        5.462494    2.483843    0.443415
     19          1           0        5.681628    2.394066    1.517814
     20          6           0        3.924641    2.565465    0.254365
     21          1           0        3.756236    2.522678   -0.829022
     22          6           0        3.358733    3.916158    0.750594
     23          1           0        3.368809    3.951109    1.845245
     24          1           0        2.306143    4.001656    0.457455
     25          6           0        4.114343    5.150344    0.216803
     26          1           0        3.988222    5.215499   -0.873657
     27          1           0        3.650191    6.047963    0.636927
     28          6           0        5.622057    5.081379    0.535630
     29          6           0        6.143658    3.753245   -0.085770
     30          1           0        5.885517    3.817185   -1.153687
     31          6           0        7.672027    3.870613    0.000000
     32          1           0        8.176481    3.235322   -0.732791
     33          1           0        8.030354    3.564025    0.990950
     34          6           0        7.935245    5.381778   -0.243858
     35          1           0        8.599125    5.792870    0.525931
     36          1           0        8.437941    5.544883   -1.201824
     37          6           0        6.546217    6.107704   -0.209032
     38          1           0        6.166227    6.165336   -1.241753
     39          6           0        5.862730    5.160035    2.061161
     40          1           0        5.410225    4.323709    2.599852
     41          1           0        6.928593    5.163969    2.308143
     42          1           0        5.430922    6.078496    2.472351
     43          6           0        6.652707    7.566588    0.308351
     44          1           0        7.090285    7.527221    1.315763
     45          6           0        5.293573    8.279632    0.408883
     46          1           0        4.776496    8.279904   -0.559115
     47          1           0        5.414792    9.322207    0.718010
     48          1           0        4.633499    7.807114    1.139330
     49          6           0        3.085167    1.391117    2.399104
     50          1           0        2.417202    2.196034    2.720645
     51          1           0        2.695199    0.461592    2.821610
     52          1           0        4.067768    1.561165    2.850289
     53          8           0        6.477194    1.314424   -1.563115
     54          8           0        5.297207    1.434963   -2.430399
     55          1           0        5.626103    2.116665   -3.037999
     56          8           0        1.058942   -2.476912    0.205911
     57          1           0        0.904835   -2.593510    1.153966
     58          6           0        7.618653    8.372858   -0.597757
     59          1           0        8.564201    7.826187   -0.691492
     60          1           0        7.186752    8.408101   -1.609253
     61          6           0        7.954769    9.812662   -0.159857
     62          1           0        8.595381   10.246929   -0.937782
     63          1           0        7.046471   10.426294   -0.146568
     64          6           0        8.670243    9.903724    1.198127
     65          1           0        9.531766    9.219739    1.186952
     66          1           0        8.001541    9.534454    1.987175
     67          6           0        9.170799   11.306691    1.617118
     68          1           0        9.632757   11.177645    2.607185
     69          6           0       10.260994   11.854973    0.681355
     70          1           0        9.866338   12.075938   -0.316989
     71          1           0       10.681549   12.786016    1.078240
     72          1           0       11.083923   11.139854    0.565392
     73          6           0        8.024946   12.318886    1.782600
     74          1           0        7.548894   12.550816    0.822888
     75          1           0        8.395364   13.262315    2.199627
     76          1           0        7.249615   11.937593    2.457633
 ---------------------------------------------------------------------

 SCF Done:  E(RHF) =  -1273.67772031     A.U. after    9 cycles

 Alpha  occ. eigenvalues --  -20.62369 -20.62232 -20.55509 -11.28742 -11.27570
 Alpha  occ. eigenvalues --  -11.24478 -11.23812 -11.22960 -11.22732 -11.22647
 Alpha  occ. eigenvalues --  -11.22486 -11.22444 -11.22427 -11.22344 -11.22262
 Alpha  occ. eigenvalues --  -11.22153 -11.21956 -11.21901 -11.21871 -11.21743
 Alpha  occ. eigenvalues --  -11.21625 -11.21617 -11.21585 -11.21534 -11.21534
 Alpha  occ. eigenvalues --  -11.21256 -11.21208 -11.21150 -11.21107 -11.21003
 Alpha  occ. eigenvalues --   -1.45203  -1.34865  -1.22331  -1.15739  -1.13798
 Alpha  occ. eigenvalues --   -1.09746  -1.07966  -1.05775  -1.05488  -1.03045
 Alpha  occ. eigenvalues --   -1.01476  -0.99394  -0.97866  -0.96127  -0.93024
 Alpha  occ. eigenvalues --   -0.92494  -0.92105  -0.91288  -0.90836  -0.85820
 Alpha  occ. eigenvalues --   -0.84699  -0.82725  -0.82425  -0.78985  -0.77879
 Alpha  occ. eigenvalues --   -0.76913  -0.74999  -0.73060  -0.72203  -0.70466
 Alpha  occ. eigenvalues --   -0.69004  -0.66541  -0.65992  -0.64962  -0.64511
 Alpha  occ. eigenvalues --   -0.63600  -0.63044  -0.62725  -0.61326  -0.61165
 Alpha  occ. eigenvalues --   -0.60529  -0.60211  -0.59687  -0.59055  -0.58748
 Alpha  occ. eigenvalues --   -0.57903  -0.57448  -0.56530  -0.56286  -0.55747
 Alpha  occ. eigenvalues --   -0.55300  -0.54991  -0.54436  -0.54069  -0.53786
 Alpha  occ. eigenvalues --   -0.53502  -0.53165  -0.52671  -0.52314  -0.52039
 Alpha  occ. eigenvalues --   -0.51299  -0.51034  -0.50386  -0.50171  -0.49234
 Alpha  occ. eigenvalues --   -0.48185  -0.47960  -0.47743  -0.47287  -0.46920
 Alpha  occ. eigenvalues --   -0.46629  -0.45920  -0.45557  -0.45261  -0.44961
 Alpha  occ. eigenvalues --   -0.44932  -0.44193  -0.43800  -0.43132  -0.43068
 Alpha  occ. eigenvalues --   -0.42478  -0.42203  -0.41520  -0.40126  -0.38624
 Alpha  occ. eigenvalues --   -0.34015
 Alpha virt. eigenvalues --    0.16769   0.20062   0.20849   0.21341   0.22502
 Alpha virt. eigenvalues --    0.22999   0.23376   0.24217   0.24830   0.25349
 Alpha virt. eigenvalues --    0.25468   0.25920   0.26579   0.26795   0.27112

 Mulliken charges:
               1
     1  C    0.192468
     2  H    0.179723
     3  C   -0.368482
     4  H    0.194511
     5  H    0.151385
     6  C    0.082648
     7  C   -0.047101
     8  C   -0.326845
     9  H    0.172655
    10  H    0.170343
    11  C   -0.340478
    12  H    0.142552
    13  H    0.182257
    14  C   -0.239139
    15  H    0.193189
    16  C    0.175314
    17  H    0.190577
    18  C   -0.200791
    19  H    0.166831
    20  C   -0.162899
    21  H    0.193665
    22  C   -0.329544
    23  H    0.162260
    24  H    0.166132
    25  C   -0.297247
    26  H    0.150278
    27  H    0.164543
    28  C   -0.030063
    29  C   -0.141522
    30  H    0.152665
    31  C   -0.326266
    32  H    0.183878
    33  H    0.154142
    34  C   -0.336553
    35  H    0.160298
    36  H    0.167954
    37  C   -0.134134
    38  H    0.149961
    39  C   -0.490526
    40  H    0.162531
    41  H    0.165630
    42  H    0.163510
    43  C   -0.155376
    44  H    0.158505
    45  C   -0.485155
    46  H    0.152823
    47  H    0.163935
    48  H    0.161869
    49  C   -0.479713
    50  H    0.165548
    51  H    0.162625
    52  H    0.166048
    53  O   -0.397580
    54  O   -0.468476
    55  H    0.460937
    56  O   -0.759643
    57  H    0.427272
    58  C   -0.308582
    59  H    0.164629
    60  H    0.149876
    61  C   -0.318625
    62  H    0.160350
    63  H    0.158976
    64  C   -0.305215
    65  H    0.150059
    66  H    0.155317
    67  C   -0.145746
    68  H    0.155278
    69  C   -0.476492
    70  H    0.156037
    71  H    0.158678
    72  H    0.156957
    73  C   -0.477146
    74  H    0.156608
    75  H    0.158985
    76  H    0.156132
 Sum of Mulliken charges =   0.00000

 Dipole moment (field-independent basis, Debye):
    X=              0.2648    Y=              2.4597    Z=              1.9141  Tot=              3.1280
 Quadrupole moment (field-independent basis, Debye-Ang):
   XX=           -191.0870   YY=           -190.8897   ZZ=           -185.4261
   XY=              7.7059   XZ=              4.8184   YZ=             -6.3983

 ESP charges:
               1
     1  C    0.591737
     2  H    0.036336
     3  C   -0.443113
     4  H    0.131791
     5  H    0.110703
     6  C    0.072562
     7  C    0.349491
     8  C   -0.027868
     9  H    0.003623
    10  H    0.055509
    11  C   -0.369380
    12  H    0.083250
    13  H    0.091281
    14  C   -0.403953
    15  H    0.180793
    16  C    0.520411
    17  H    0.023527
    18  C   -0.544659
    19  H    0.129208
    20  C   -0.121640
    21  H    0.093897
    22  C   -0.024968
    23  H    0.035686
    24  H    0.010687
    25  C   -0.189982
    26  H    0.015560
    27  H    0.052272
    28  C    0.479442
    29  C    0.332022
    30  H   -0.035478
    31  C   -0.137595
    32  H    0.036585
    33  H    0.028515
    34  C   -0.138972
    35  H    0.039729
    36  H    0.052796
    37  C   -0.251425
    38  H    0.024542
    39  C   -0.604844
    40  H    0.138816
    41  H    0.134666
    42  H    0.127212
    43  C    0.465444
    44  H   -0.048973
    45  C   -0.545322
    46  H    0.105178
    47  H    0.139110
    48  H    0.108095
    49  C   -0.469686
    50  H    0.102047
    51  H    0.117200
    52  H    0.120881
    53  O   -0.334032
    54  O   -0.444869
    55  H    0.441699
    56  O   -0.761874
    57  H    0.424964
    58  C   -0.204303
    59  H    0.042271
    60  H    0.029538
    61  C    0.123465
    62  H   -0.005070
    63  H   -0.018313
    64  C   -0.254496
    65  H    0.040701
    66  H    0.032815
    67  C    0.472412
    68  H   -0.060522
    69  C   -0.463991
    70  H    0.105081
    71  H    0.100926
    72  H    0.100115
    73  C   -0.417941
    74  H    0.092329
    75  H    0.091298
    76  H    0.085048
 Sum of ESP charges =   0.00000

 Normal termination of Gaussian 09 at Wed Apr 26 14:59:15 2017.
