 Gaussian 09, Revision D.01,
 Gaussian 09:  EM64L-G09RevD.01 24-Apr-2013

 ----------------------------------------------------------------------
 #P HF/6-31G* SCF(Conver=6) NoSymm Test Pop=mk IOp(6/33=2) GFInput GFPr
 int
 ----------------------------------------------------------------------

 ----------------------------------------------
 MEP - Input generated by R.E.D.-III.x MOLECULE
 ----------------------------------------------
 Symbolic Z-matrix:
 Charge =  0 Multiplicity = 1

                          Input orientation:
 ---------------------------------------------------------------------
 Center     Atomic      Atomic             Coordinates (Angstroms)
 Number     Number       Type             X           Y           Z
 ---------------------------------------------------------------------
      1          6           0        1.013889   -0.875734   -1.691057
      2          1           0        1.140999    0.096352   -2.183113
      3          6           0        2.251599   -1.741709   -1.974385
      4          1           0        2.389017   -1.845832   -3.055155
      5          1           0        2.049976   -2.751518   -1.583636
      6          6           0        3.509111   -1.180239   -1.336728
      7          6           0        3.436642   -0.857200    0.161094
      8          6           0        2.129763   -0.045159    0.419440
      9          1           0        2.263440    0.961300    0.000000
     10          1           0        1.990606    0.083975    1.498182
     11          6           0        0.857104   -0.656981   -0.186285
     12          1           0        0.626061   -1.619279    0.294096
     13          1           0        0.000000    0.000000    0.000000
     14          6           0        4.609796   -0.993621   -2.081558
     15          1           0        4.580845   -1.245197   -3.140128
     16          6           0        5.910591   -0.450263   -1.564673
     17          1           0        6.751056   -1.011440   -1.992442
     18          6           0        5.995489   -0.479415   -0.027847
     19          1           0        6.144662   -1.538044    0.226313
     20          6           0        4.664643    0.016826    0.599265
     21          1           0        4.491685    1.017280    0.176175
     22          6           0        4.772730    0.191983    2.134034
     23          1           0        4.785310   -0.787112    2.623259
     24          1           0        3.876669    0.702316    2.505545
     25          6           0        6.014581    0.981254    2.596358
     26          1           0        5.940630    2.019130    2.243387
     27          1           0        6.015892    1.020158    3.692118
     28          6           0        7.316079    0.360509    2.053422
     29          6           0        7.183803    0.336463    0.502907
     30          1           0        6.991342    1.377627    0.211714
     31          6           0        8.597945    0.000000    0.000000
     32          1           0        8.765363    0.365135   -1.017150
     33          1           0        8.759567   -1.085447   -0.016479
     34          6           0        9.530961    0.685104    1.039456
     35          1           0       10.258211   -0.029249    1.438628
     36          1           0       10.113458    1.496930    0.590564
     37          6           0        8.607572    1.243703    2.169200
     38          1           0        8.285640    2.237506    1.829184
     39          6           0        7.520245   -1.054483    2.642487
     40          1           0        6.765792   -1.761413    2.287562
     41          1           0        8.496952   -1.472101    2.385224
     42          1           0        7.448092   -1.034126    3.733779
     43          6           0        9.370448    1.507651    3.499296
     44          1           0       10.238287    2.106189    3.181812
     45          6           0        9.960017    0.278783    4.221164
     46          1           0        9.197094   -0.284151    4.766910
     47          1           0       10.704714    0.607008    4.955289
     48          1           0       10.461699   -0.412992    3.538252
     49          6           0        3.380566   -2.197407    0.944666
     50          1           0        3.130020   -2.032752    1.996787
     51          1           0        2.624814   -2.872883    0.536832
     52          1           0        4.339242   -2.723378    0.899492
     53          8           0        6.094332    0.935188   -1.967214
     54          8           0        6.269532    0.955080   -3.411703
     55          1           0        5.425604    1.344738   -3.694395
     56          8           0       -0.163101   -1.420260   -2.293272
     57          1           0       -0.352994   -2.276471   -1.884606
     58          6           0        8.595118    2.365577    4.529000
     59          1           0        7.711742    1.809411    4.868038
     60          1           0        9.231793    2.464836    5.418638
     61          6           0        8.147165    3.772233    4.086327
     62          1           0        7.418706    3.690919    3.270948
     63          1           0        7.597511    4.228204    4.919852
     64          6           0        9.267626    4.727344    3.631625
     65          1           0        8.805644    5.678740    3.328868
     66          1           0        9.740379    4.326534    2.724881
     67          6           0       10.375145    5.035993    4.661348
     68          1           0       10.849372    4.087540    4.952716
     69          6           0       11.462284    5.916097    4.023698
     70          1           0       11.049638    6.885548    3.716019
     71          1           0       12.279943    6.111515    4.726900
     72          1           0       11.891159    5.440383    3.134222
     73          6           0        9.825241    5.697340    5.935199
     74          1           0        9.318254    6.641137    5.695395
     75          1           0       10.634461    5.925182    6.638331
     76          1           0        9.106902    5.056724    6.456873
 ---------------------------------------------------------------------

 SCF Done:  E(RHF) =  -1273.67562272     A.U. after    9 cycles

 Alpha  occ. eigenvalues --  -20.62359 -20.62034 -20.56076 -11.28482 -11.28247
 Alpha  occ. eigenvalues --  -11.24983 -11.24545 -11.23098 -11.23013 -11.22974
 Alpha  occ. eigenvalues --  -11.22945 -11.22692 -11.22688 -11.22418 -11.22380
 Alpha  occ. eigenvalues --  -11.22356 -11.22269 -11.21944 -11.21886 -11.21598
 Alpha  occ. eigenvalues --  -11.21467 -11.21378 -11.21357 -11.21325 -11.21107
 Alpha  occ. eigenvalues --  -11.20971 -11.20953 -11.20915 -11.20891 -11.20817
 Alpha  occ. eigenvalues --   -1.45666  -1.35454  -1.22103  -1.15609  -1.13914
 Alpha  occ. eigenvalues --   -1.09595  -1.07888  -1.05805  -1.05618  -1.03120
 Alpha  occ. eigenvalues --   -1.01515  -0.99522  -0.97960  -0.96426  -0.92645
 Alpha  occ. eigenvalues --   -0.92453  -0.92323  -0.91603  -0.90610  -0.86247
 Alpha  occ. eigenvalues --   -0.84036  -0.82948  -0.82593  -0.79364  -0.78448
 Alpha  occ. eigenvalues --   -0.77089  -0.74700  -0.73201  -0.71705  -0.70690
 Alpha  occ. eigenvalues --   -0.69002  -0.67103  -0.65195  -0.64907  -0.64416
 Alpha  occ. eigenvalues --   -0.63797  -0.63407  -0.62778  -0.62162  -0.61335
 Alpha  occ. eigenvalues --   -0.61140  -0.59826  -0.59461  -0.59083  -0.58173
 Alpha  occ. eigenvalues --   -0.57789  -0.57735  -0.57506  -0.56698  -0.55896
 Alpha  occ. eigenvalues --   -0.55400  -0.55259  -0.54319  -0.54172  -0.53872
 Alpha  occ. eigenvalues --   -0.53248  -0.53090  -0.52782  -0.52157  -0.51282
 Alpha  occ. eigenvalues --   -0.50799  -0.50639  -0.50273  -0.49670  -0.49260
 Alpha  occ. eigenvalues --   -0.49044  -0.48115  -0.48061  -0.47319  -0.47016
 Alpha  occ. eigenvalues --   -0.46698  -0.46240  -0.45464  -0.45188  -0.44684
 Alpha  occ. eigenvalues --   -0.44397  -0.44245  -0.44037  -0.43241  -0.42875
 Alpha  occ. eigenvalues --   -0.42483  -0.41967  -0.41584  -0.40183  -0.38897
 Alpha  occ. eigenvalues --   -0.34700
 Alpha virt. eigenvalues --    0.16015   0.19825   0.20942   0.21683   0.22291
 Alpha virt. eigenvalues --    0.22784   0.23129   0.23681   0.24178   0.24574
 Alpha virt. eigenvalues --    0.25337   0.25873   0.26506   0.26589   0.27055

 Mulliken charges:
               1
     1  C    0.194117
     2  H    0.172031
     3  C   -0.368778
     4  H    0.192313
     5  H    0.155710
     6  C    0.083538
     7  C   -0.044861
     8  C   -0.325459
     9  H    0.168022
    10  H    0.173730
    11  C   -0.341408
    12  H    0.145128
    13  H    0.184097
    14  C   -0.277592
    15  H    0.193551
    16  C    0.193079
    17  H    0.186840
    18  C   -0.210461
    19  H    0.172028
    20  C   -0.157513
    21  H    0.177972
    22  C   -0.329437
    23  H    0.165720
    24  H    0.165485
    25  C   -0.302274
    26  H    0.156899
    27  H    0.162130
    28  C   -0.022669
    29  C   -0.156415
    30  H    0.187981
    31  C   -0.325421
    32  H    0.188225
    33  H    0.151632
    34  C   -0.328343
    35  H    0.158951
    36  H    0.166213
    37  C   -0.156643
    38  H    0.162992
    39  C   -0.487362
    40  H    0.158410
    41  H    0.167342
    42  H    0.161495
    43  C   -0.147062
    44  H    0.157226
    45  C   -0.481435
    46  H    0.155726
    47  H    0.157396
    48  H    0.160444
    49  C   -0.482483
    50  H    0.168218
    51  H    0.162951
    52  H    0.169515
    53  O   -0.398599
    54  O   -0.464241
    55  H    0.459462
    56  O   -0.758783
    57  H    0.428777
    58  C   -0.309060
    59  H    0.155179
    60  H    0.155959
    61  C   -0.320702
    62  H    0.162454
    63  H    0.158270
    64  C   -0.303541
    65  H    0.151662
    66  H    0.156412
    67  C   -0.152030
    68  H    0.155186
    69  C   -0.471584
    70  H    0.152730
    71  H    0.157833
    72  H    0.157848
    73  C   -0.476788
    74  H    0.152181
    75  H    0.158119
    76  H    0.161767
 Sum of Mulliken charges =   0.00000

 Dipole moment (field-independent basis, Debye):
    X=             -1.0152    Y=             -1.5003    Z=              1.8008  Tot=              2.5542
 Quadrupole moment (field-independent basis, Debye-Ang):
   XX=           -211.5256   YY=           -187.1898   ZZ=           -195.3444
   XY=             -6.5606   XZ=              5.6150   YZ=             -0.4545

 ESP charges:
               1
     1  C    0.557232
     2  H    0.038189
     3  C   -0.518255
     4  H    0.155213
     5  H    0.137277
     6  C    0.217642
     7  C    0.244273
     8  C   -0.021680
     9  H    0.010883
    10  H    0.064520
    11  C   -0.362441
    12  H    0.088815
    13  H    0.094853
    14  C   -0.525634
    15  H    0.172909
    16  C    0.575170
    17  H    0.027170
    18  C   -0.481306
    19  H    0.132705
    20  C   -0.299300
    21  H    0.124256
    22  C    0.075473
    23  H    0.018243
    24  H    0.010308
    25  C   -0.331031
    26  H    0.067176
    27  H    0.049500
    28  C    0.767769
    29  C    0.154837
    30  H   -0.025326
    31  C   -0.146583
    32  H    0.090375
    33  H    0.019964
    34  C   -0.281542
    35  H    0.076268
    36  H    0.069174
    37  C   -0.047034
    38  H    0.006288
    39  C   -0.656514
    40  H    0.140566
    41  H    0.142763
    42  H    0.123358
    43  C    0.323702
    44  H   -0.020204
    45  C   -0.561313
    46  H    0.118167
    47  H    0.127257
    48  H    0.125865
    49  C   -0.391300
    50  H    0.096312
    51  H    0.097364
    52  H    0.112000
    53  O   -0.290566
    54  O   -0.472115
    55  H    0.443869
    56  O   -0.747400
    57  H    0.424406
    58  C   -0.248160
    59  H    0.038612
    60  H    0.066451
    61  C   -0.017142
    62  H   -0.015437
    63  H    0.031893
    64  C   -0.133305
    65  H    0.027552
    66  H    0.018316
    67  C    0.482888
    68  H   -0.053074
    69  C   -0.511560
    70  H    0.113283
    71  H    0.116429
    72  H    0.102240
    73  C   -0.458634
    74  H    0.103129
    75  H    0.097571
    76  H    0.096381
 Sum of ESP charges =   0.00000

 Normal termination of Gaussian 09 at Wed Apr 26 13:45:30 2017.
