 Gaussian 09, Revision D.01,
 Gaussian 09:  EM64L-G09RevD.01 24-Apr-2013

 ----------------------------------------------------------------------
 #P HF/6-31G* SCF(Conver=6) NoSymm Test Pop=mk IOp(6/33=2) GFInput GFPr
 int
 ----------------------------------------------------------------------

 ----------------------------------------------
 MEP - Input generated by R.E.D.-III.x MOLECULE
 ----------------------------------------------
 Symbolic Z-matrix:
 Charge =  0 Multiplicity = 1

                          Input orientation:
 ---------------------------------------------------------------------
 Center     Atomic      Atomic             Coordinates (Angstroms)
 Number     Number       Type             X           Y           Z
 ---------------------------------------------------------------------
      1          6           0        1.013971   -0.888380   -1.684401
      2          1           0        1.145441    0.080745   -2.181120
      3          6           0        2.249236   -1.760207   -1.960819
      4          1           0        2.388661   -1.869908   -3.040786
      5          1           0        2.042808   -2.767393   -1.565831
      6          6           0        3.507381   -1.200291   -1.323047
      7          6           0        3.432792   -0.870276    0.173014
      8          6           0        2.128720   -0.051717    0.424426
      9          1           0        2.267418    0.951957    0.000000
     10          1           0        1.987876    0.083684    1.502233
     11          6           0        0.854827   -0.661399   -0.181046
     12          1           0        0.618701   -1.620317    0.303595
     13          1           0        0.000000    0.000000    0.000000
     14          6           0        4.610162   -1.020675   -2.066450
     15          1           0        4.582697   -1.277278   -3.123858
     16          6           0        5.910862   -0.477144   -1.549837
     17          1           0        6.751321   -1.041457   -1.973400
     18          6           0        5.993603   -0.497532   -0.012864
     19          1           0        6.145489   -1.554007    0.249797
     20          6           0        4.662862    0.001105    0.610635
     21          1           0        4.492522    1.001531    0.186429
     22          6           0        4.773625    0.175359    2.144212
     23          1           0        4.783124   -0.804937    2.631349
     24          1           0        3.879712    0.687639    2.518416
     25          6           0        6.018262    0.958301    2.610555
     26          1           0        5.951126    1.999144    2.263170
     27          1           0        6.012745    0.993544    3.704741
     28          6           0        7.320690    0.339122    2.063467
     29          6           0        7.179784    0.323111    0.515780
     30          1           0        6.980692    1.366285    0.234401
     31          6           0        8.589357    0.000000    0.000000
     32          1           0        8.745590    0.369217   -1.017365
     33          1           0        8.761145   -1.083864   -0.020848
     34          6           0        9.523346    0.690181    1.032854
     35          1           0       10.268177   -0.017220    1.416301
     36          1           0       10.085583    1.511823    0.578346
     37          6           0        8.618380    1.209482    2.198762
     38          1           0        8.311308    2.237676    1.957546
     39          6           0        7.552933   -1.067236    2.660589
     40          1           0        6.756293   -1.769275    2.401105
     41          1           0        8.493905   -1.507186    2.316717
     42          1           0        7.595529   -1.020333    3.754057
     43          6           0        9.367412    1.257687    3.553521
     44          1           0        9.680278    0.230490    3.791769
     45          6           0        8.500005    1.753412    4.726145
     46          1           0        8.008002    2.705436    4.497506
     47          1           0        9.116141    1.905094    5.620416
     48          1           0        7.718857    1.035656    4.989518
     49          6           0        3.369370   -2.207160    0.961724
     50          1           0        3.114416   -2.037744    2.012015
     51          1           0        2.613801   -2.882311    0.553041
     52          1           0        4.326869   -2.735809    0.922797
     53          8           0        6.097027    0.906039   -1.959177
     54          8           0        6.279167    0.917604   -3.402927
     55          1           0        5.437808    1.308284   -3.691736
     56          8           0       -0.163656   -1.431862   -2.286315
     57          1           0       -0.357121   -2.285516   -1.873993
     58          6           0       10.681117    2.080362    3.468347
     59          1           0       11.193136    1.987295    4.436946
     60          1           0       11.352073    1.619117    2.732926
     61          6           0       10.539113    3.574992    3.134693
     62          1           0       10.062793    3.690352    2.153484
     63          1           0        9.871585    4.053414    3.861500
     64          6           0       11.898897    4.292970    3.133857
     65          1           0       12.564090    3.784704    2.420679
     66          1           0       12.363069    4.165529    4.122687
     67          6           0       11.886649    5.801682    2.794235
     68          1           0       12.934699    6.131408    2.851178
     69          6           0       11.403112    6.083329    1.361873
     70          1           0       10.342100    5.838217    1.236929
     71          1           0       11.524566    7.143284    1.110817
     72          1           0       11.969822    5.499284    0.627195
     73          6           0       11.096022    6.633697    3.817602
     74          1           0       10.023743    6.409729    3.778632
     75          1           0       11.212634    7.705773    3.621817
     76          1           0       11.441028    6.441553    4.840466
 ---------------------------------------------------------------------

 SCF Done:  E(RHF) =  -1273.68298688     A.U. after    9 cycles

 Alpha  occ. eigenvalues --  -20.62347 -20.62020 -20.56065 -11.28463 -11.28235
 Alpha  occ. eigenvalues --  -11.24960 -11.24526 -11.23086 -11.22974 -11.22956
 Alpha  occ. eigenvalues --  -11.22918 -11.22673 -11.22636 -11.22402 -11.22334
 Alpha  occ. eigenvalues --  -11.22255 -11.22219 -11.21901 -11.21789 -11.21499
 Alpha  occ. eigenvalues --  -11.21327 -11.21299 -11.21256 -11.21156 -11.21124
 Alpha  occ. eigenvalues --  -11.21019 -11.20868 -11.20842 -11.20841 -11.20809
 Alpha  occ. eigenvalues --   -1.45652  -1.35443  -1.22092  -1.15601  -1.13939
 Alpha  occ. eigenvalues --   -1.09467  -1.07904  -1.05788  -1.05683  -1.03080
 Alpha  occ. eigenvalues --   -1.01519  -0.99388  -0.97942  -0.96357  -0.92929
 Alpha  occ. eigenvalues --   -0.92295  -0.92199  -0.90857  -0.90735  -0.86232
 Alpha  occ. eigenvalues --   -0.84412  -0.83041  -0.82683  -0.79113  -0.78172
 Alpha  occ. eigenvalues --   -0.76886  -0.74496  -0.73001  -0.71798  -0.70814
 Alpha  occ. eigenvalues --   -0.69118  -0.67107  -0.65670  -0.64449  -0.64280
 Alpha  occ. eigenvalues --   -0.63903  -0.63301  -0.62785  -0.61982  -0.61724
 Alpha  occ. eigenvalues --   -0.61036  -0.60107  -0.59333  -0.59084  -0.58443
 Alpha  occ. eigenvalues --   -0.58102  -0.57570  -0.57092  -0.56433  -0.56018
 Alpha  occ. eigenvalues --   -0.55080  -0.54756  -0.54469  -0.54086  -0.53788
 Alpha  occ. eigenvalues --   -0.53200  -0.53113  -0.52651  -0.52044  -0.51602
 Alpha  occ. eigenvalues --   -0.51437  -0.50453  -0.50154  -0.49661  -0.49043
 Alpha  occ. eigenvalues --   -0.48373  -0.48113  -0.47632  -0.47331  -0.47193
 Alpha  occ. eigenvalues --   -0.46564  -0.46144  -0.45396  -0.45121  -0.44846
 Alpha  occ. eigenvalues --   -0.44508  -0.44322  -0.43568  -0.43291  -0.42855
 Alpha  occ. eigenvalues --   -0.42594  -0.42294  -0.41621  -0.40202  -0.38940
 Alpha  occ. eigenvalues --   -0.34683
 Alpha virt. eigenvalues --    0.16034   0.20414   0.21268   0.21769   0.22268
 Alpha virt. eigenvalues --    0.22948   0.23065   0.24080   0.24249   0.24717
 Alpha virt. eigenvalues --    0.25326   0.26080   0.26569   0.26679   0.27368

 Mulliken charges:
               1
     1  C    0.194087
     2  H    0.172045
     3  C   -0.368770
     4  H    0.192255
     5  H    0.155625
     6  C    0.083483
     7  C   -0.044590
     8  C   -0.325398
     9  H    0.168078
    10  H    0.173685
    11  C   -0.341378
    12  H    0.145081
    13  H    0.184049
    14  C   -0.277150
    15  H    0.193412
    16  C    0.192121
    17  H    0.186723
    18  C   -0.209783
    19  H    0.171940
    20  C   -0.157519
    21  H    0.177955
    22  C   -0.329557
    23  H    0.164362
    24  H    0.165334
    25  C   -0.298138
    26  H    0.154992
    27  H    0.163995
    28  C   -0.028527
    29  C   -0.152692
    30  H    0.186627
    31  C   -0.325831
    32  H    0.189215
    33  H    0.151096
    34  C   -0.335414
    35  H    0.158768
    36  H    0.169741
    37  C   -0.142703
    38  H    0.159183
    39  C   -0.490599
    40  H    0.159595
    41  H    0.166198
    42  H    0.162805
    43  C   -0.147301
    44  H    0.156049
    45  C   -0.485899
    46  H    0.157247
    47  H    0.157368
    48  H    0.160504
    49  C   -0.482814
    50  H    0.168191
    51  H    0.162952
    52  H    0.169473
    53  O   -0.398437
    54  O   -0.464439
    55  H    0.459481
    56  O   -0.758788
    57  H    0.428758
    58  C   -0.309232
    59  H    0.151947
    60  H    0.161189
    61  C   -0.322046
    62  H    0.161190
    63  H    0.160089
    64  C   -0.300033
    65  H    0.151395
    66  H    0.150596
    67  C   -0.146077
    68  H    0.154908
    69  C   -0.476390
    70  H    0.156366
    71  H    0.158020
    72  H    0.157477
    73  C   -0.476057
    74  H    0.155646
    75  H    0.158023
    76  H    0.156245
 Sum of Mulliken charges =   0.00000

 Dipole moment (field-independent basis, Debye):
    X=             -0.9077    Y=             -1.5298    Z=              1.8168  Tot=              2.5426
 Quadrupole moment (field-independent basis, Debye-Ang):
   XX=           -209.4572   YY=           -186.6773   ZZ=           -195.1371
   XY=             -6.2723   XZ=              5.9215   YZ=             -0.7430

 ESP charges:
               1
     1  C    0.561433
     2  H    0.037124
     3  C   -0.530424
     4  H    0.157400
     5  H    0.138151
     6  C    0.246368
     7  C    0.220585
     8  C   -0.019284
     9  H    0.010167
    10  H    0.064771
    11  C   -0.361430
    12  H    0.088765
    13  H    0.093890
    14  C   -0.539119
    15  H    0.173734
    16  C    0.565633
    17  H    0.042355
    18  C   -0.497016
    19  H    0.133292
    20  C   -0.278723
    21  H    0.116059
    22  C    0.104403
    23  H    0.004330
    24  H   -0.000796
    25  C   -0.268244
    26  H    0.034715
    27  H    0.039761
    28  C    0.657050
    29  C    0.276580
    30  H   -0.014720
    31  C   -0.456706
    32  H    0.144576
    33  H    0.084249
    34  C    0.028933
    35  H    0.012092
    36  H    0.020787
    37  C    0.018602
    38  H   -0.081071
    39  C   -0.644038
    40  H    0.147656
    41  H    0.124233
    42  H    0.123804
    43  C    0.115005
    44  H    0.008214
    45  C   -0.406071
    46  H    0.076266
    47  H    0.106155
    48  H    0.089416
    49  C   -0.395373
    50  H    0.098351
    51  H    0.099340
    52  H    0.111802
    53  O   -0.299739
    54  O   -0.472933
    55  H    0.447378
    56  O   -0.747953
    57  H    0.424570
    58  C   -0.232349
    59  H    0.061205
    60  H    0.022867
    61  C    0.279604
    62  H   -0.011653
    63  H   -0.015041
    64  C   -0.387344
    65  H    0.074609
    66  H    0.068199
    67  C    0.440143
    68  H   -0.043125
    69  C   -0.427886
    70  H    0.095109
    71  H    0.094999
    72  H    0.092308
    73  C   -0.418468
    74  H    0.087919
    75  H    0.092558
    76  H    0.091991
 Sum of ESP charges =   0.00000

 Normal termination of Gaussian 09 at Wed Apr 26 13:20:19 2017.
