 Gaussian 09, Revision D.01,
 Gaussian 09:  EM64L-G09RevD.01 24-Apr-2013

 ----------------------------------------------------------------------
 #P HF/6-31G* SCF(Conver=6) NoSymm Test Pop=mk IOp(6/33=2) GFInput GFPr
 int
 ----------------------------------------------------------------------

 ----------------------------------------------
 MEP - Input generated by R.E.D.-III.x MOLECULE
 ----------------------------------------------
 Symbolic Z-matrix:
 Charge =  0 Multiplicity = 1

                          Input orientation:
 ---------------------------------------------------------------------
 Center     Atomic      Atomic             Coordinates (Angstroms)
 Number     Number       Type             X           Y           Z
 ---------------------------------------------------------------------
      1          6           0        7.517413    2.151389   -0.056895
      2          1           0        7.417144    2.068083    1.032265
      3          6           0        6.763386    0.985638   -0.716090
      4          1           0        7.154686    0.034746   -0.341290
      5          1           0        6.982464    1.013166   -1.795139
      6          6           0        5.264815    1.063030   -0.488811
      7          6           0        4.581348    2.388823   -0.846747
      8          6           0        5.418318    3.549299   -0.224765
      9          1           0        5.272400    3.531528    0.863867
     10          1           0        5.023848    4.509133   -0.575281
     11          6           0        6.926386    3.485613   -0.512125
     12          1           0        7.119319    3.615482   -1.587323
     13          1           0        7.440646    4.306722    0.000000
     14          6           0        4.607446    0.000000    0.000000
     15          1           0        5.164978   -0.905567    0.231976
     16          6           0        3.130109   -0.045390    0.264202
     17          1           0        2.718090   -1.010106   -0.058037
     18          6           0        2.369124    1.100784   -0.426585
     19          1           0        2.353671    0.828071   -1.490988
     20          6           0        3.130190    2.442602   -0.251038
     21          1           0        3.252133    2.575184    0.834036
     22          6           0        2.305873    3.650297   -0.760495
     23          1           0        2.286523    3.655782   -1.854933
     24          1           0        2.803081    4.580951   -0.463780
     25          6           0        0.851018    3.686274   -0.249762
     26          1           0        0.848544    3.840286    0.838193
     27          1           0        0.347276    4.553698   -0.692402
     28          6           0        0.103869    2.377331   -0.570534
     29          6           0        0.924611    1.226417    0.080540
     30          1           0        0.998341    1.488561    1.144390
     31          6           0        0.000000    0.000000    0.000000
     32          1           0        0.237941   -0.739994    0.769226
     33          1           0        0.098692   -0.501410   -0.971327
     34          6           0       -1.424448    0.601415    0.172749
     35          1           0       -2.083841    0.276098   -0.638255
     36          1           0       -1.896484    0.268702    1.103522
     37          6           0       -1.255696    2.154741    0.179007
     38          1           0       -1.037433    2.427769    1.220229
     39          6           0       -0.035373    2.201763   -2.100492
     40          1           0        0.929952    2.037794   -2.586612
     41          1           0       -0.674314    1.354634   -2.362587
     42          1           0       -0.472076    3.096020   -2.554766
     43          6           0       -2.573365    2.910346   -0.159584
     44          1           0       -3.306871    2.470160    0.535966
     45          6           0       -3.154286    2.697966   -1.572398
     46          1           0       -2.623372    3.284380   -2.327984
     47          1           0       -4.201443    3.020822   -1.590836
     48          1           0       -3.132455    1.650441   -1.886384
     49          6           0        4.569508    2.526390   -2.394073
     50          1           0        4.275297    3.534226   -2.701568
     51          1           0        5.555256    2.334499   -2.824520
     52          1           0        3.875665    1.813264   -2.849867
     53          8           0        2.851233    0.065433    1.687341
     54          8           0        3.344461   -1.144245    2.328589
     55          1           0        4.117222   -0.798341    2.805161
     56          8           0        8.926485    2.067586   -0.284932
     57          1           0        9.093269    2.160586   -1.233459
     58          6           0       -2.550477    4.425598    0.153217
     59          1           0       -1.807184    4.924909   -0.482553
     60          1           0       -3.523009    4.837845   -0.152361
     61          6           0       -2.313967    4.812600    1.621517
     62          1           0       -3.027212    4.262661    2.250552
     63          1           0       -1.314232    4.495389    1.937893
     64          6           0       -2.469681    6.324381    1.854472
     65          1           0       -3.476519    6.627419    1.532427
     66          1           0       -1.769043    6.855193    1.193493
     67          6           0       -2.249963    6.829565    3.299644
     68          1           0       -2.408749    7.917657    3.265477
     69          6           0       -3.276007    6.254774    4.290311
     70          1           0       -3.142648    5.175875    4.430194
     71          1           0       -3.174305    6.726403    5.274408
     72          1           0       -4.302618    6.422940    3.944021
     73          6           0       -0.813121    6.599562    3.796989
     74          1           0       -0.592340    5.532796    3.918271
     75          1           0       -0.656689    7.077499    4.770822
     76          1           0       -0.077733    7.016375    3.098675
 ---------------------------------------------------------------------

 SCF Done:  E(RHF) =  -1273.67718495     A.U. after    9 cycles

 Alpha  occ. eigenvalues --  -20.62353 -20.62026 -20.56070 -11.28475 -11.28240
 Alpha  occ. eigenvalues --  -11.24976 -11.24536 -11.23093 -11.23006 -11.22967
 Alpha  occ. eigenvalues --  -11.22938 -11.22681 -11.22670 -11.22474 -11.22411
 Alpha  occ. eigenvalues --  -11.22409 -11.22263 -11.21942 -11.21844 -11.21601
 Alpha  occ. eigenvalues --  -11.21471 -11.21367 -11.21312 -11.21296 -11.21066
 Alpha  occ. eigenvalues --  -11.20990 -11.20947 -11.20889 -11.20885 -11.20774
 Alpha  occ. eigenvalues --   -1.45656  -1.35448  -1.22096  -1.15599  -1.13896
 Alpha  occ. eigenvalues --   -1.09463  -1.07950  -1.05804  -1.05737  -1.03109
 Alpha  occ. eigenvalues --   -1.01563  -0.99604  -0.97953  -0.96400  -0.92585
 Alpha  occ. eigenvalues --   -0.92415  -0.92332  -0.91621  -0.90429  -0.86241
 Alpha  occ. eigenvalues --   -0.83872  -0.83027  -0.82619  -0.79341  -0.78438
 Alpha  occ. eigenvalues --   -0.76937  -0.74402  -0.73554  -0.71857  -0.70744
 Alpha  occ. eigenvalues --   -0.69021  -0.67100  -0.65248  -0.64730  -0.64409
 Alpha  occ. eigenvalues --   -0.63780  -0.63326  -0.62809  -0.62370  -0.61364
 Alpha  occ. eigenvalues --   -0.61111  -0.59665  -0.59647  -0.59059  -0.58571
 Alpha  occ. eigenvalues --   -0.58020  -0.57618  -0.57212  -0.56283  -0.55991
 Alpha  occ. eigenvalues --   -0.55574  -0.54909  -0.54344  -0.54232  -0.53882
 Alpha  occ. eigenvalues --   -0.53575  -0.53124  -0.52773  -0.51987  -0.51210
 Alpha  occ. eigenvalues --   -0.50748  -0.50268  -0.50082  -0.49699  -0.49170
 Alpha  occ. eigenvalues --   -0.48769  -0.48183  -0.47821  -0.47451  -0.47147
 Alpha  occ. eigenvalues --   -0.46712  -0.46222  -0.45513  -0.45142  -0.45059
 Alpha  occ. eigenvalues --   -0.44598  -0.44390  -0.44056  -0.43117  -0.42905
 Alpha  occ. eigenvalues --   -0.42498  -0.41943  -0.41446  -0.40182  -0.38910
 Alpha  occ. eigenvalues --   -0.34691
 Alpha virt. eigenvalues --    0.16024   0.20246   0.20964   0.21689   0.22233
 Alpha virt. eigenvalues --    0.22547   0.23029   0.23934   0.24354   0.24683
 Alpha virt. eigenvalues --    0.24984   0.25940   0.26550   0.27073   0.27188

 Mulliken charges:
               1
     1  C    0.194100
     2  H    0.172073
     3  C   -0.368764
     4  H    0.192298
     5  H    0.155676
     6  C    0.083517
     7  C   -0.044852
     8  C   -0.325472
     9  H    0.168104
    10  H    0.173647
    11  C   -0.341423
    12  H    0.145121
    13  H    0.184093
    14  C   -0.277401
    15  H    0.193474
    16  C    0.193004
    17  H    0.186883
    18  C   -0.210234
    19  H    0.172003
    20  C   -0.157519
    21  H    0.177891
    22  C   -0.329328
    23  H    0.165732
    24  H    0.165308
    25  C   -0.301970
    26  H    0.156393
    27  H    0.161690
    28  C   -0.023161
    29  C   -0.156393
    30  H    0.187614
    31  C   -0.325385
    32  H    0.188349
    33  H    0.151472
    34  C   -0.327966
    35  H    0.158920
    36  H    0.166891
    37  C   -0.157337
    38  H    0.163156
    39  C   -0.487261
    40  H    0.158242
    41  H    0.167446
    42  H    0.161460
    43  C   -0.141654
    44  H    0.152506
    45  C   -0.482604
    46  H    0.155967
    47  H    0.158158
    48  H    0.160436
    49  C   -0.482457
    50  H    0.168195
    51  H    0.162933
    52  H    0.169509
    53  O   -0.398601
    54  O   -0.464322
    55  H    0.459472
    56  O   -0.758783
    57  H    0.428765
    58  C   -0.300185
    59  H    0.152197
    60  H    0.152432
    61  C   -0.319587
    62  H    0.155024
    63  H    0.163101
    64  C   -0.300548
    65  H    0.151322
    66  H    0.150146
    67  C   -0.146211
    68  H    0.155015
    69  C   -0.476324
    70  H    0.157025
    71  H    0.158197
    72  H    0.156642
    73  C   -0.476601
    74  H    0.156379
    75  H    0.158656
    76  H    0.155714
 Sum of Mulliken charges =   0.00000

 Dipole moment (field-independent basis, Debye):
    X=              0.3282    Y=              1.4139    Z=             -2.0692  Tot=              2.5276
 Quadrupole moment (field-independent basis, Debye-Ang):
   XX=           -199.0736   YY=           -187.8649   ZZ=           -188.2422
   XY=              2.5352   XZ=            -10.8861   YZ=             -2.2170

 ESP charges:
               1
     1  C    0.536809
     2  H    0.044567
     3  C   -0.489662
     4  H    0.151553
     5  H    0.133778
     6  C    0.111851
     7  C    0.405275
     8  C   -0.032506
     9  H    0.003413
    10  H    0.055637
    11  C   -0.359828
    12  H    0.083683
    13  H    0.096613
    14  C   -0.456951
    15  H    0.162533
    16  C    0.528257
    17  H    0.043401
    18  C   -0.643059
    19  H    0.167506
    20  C   -0.222645
    21  H    0.109587
    22  C   -0.139103
    23  H    0.062710
    24  H    0.042931
    25  C   -0.162574
    26  H    0.054776
    27  H    0.027916
    28  C    0.695049
    29  C    0.354787
    30  H   -0.049997
    31  C   -0.218888
    32  H    0.098446
    33  H    0.026122
    34  C   -0.215369
    35  H    0.069646
    36  H    0.059826
    37  C   -0.104618
    38  H   -0.024005
    39  C   -0.659940
    40  H    0.132344
    41  H    0.149266
    42  H    0.126610
    43  C    0.276043
    44  H   -0.013897
    45  C   -0.466562
    46  H    0.099498
    47  H    0.107150
    48  H    0.104741
    49  C   -0.400140
    50  H    0.089578
    51  H    0.091753
    52  H    0.108056
    53  O   -0.282555
    54  O   -0.471282
    55  H    0.441562
    56  O   -0.745237
    57  H    0.425151
    58  C   -0.319139
    59  H    0.053075
    60  H    0.080239
    61  C    0.303071
    62  H   -0.028350
    63  H   -0.080182
    64  C   -0.418928
    65  H    0.074824
    66  H    0.079759
    67  C    0.501116
    68  H   -0.053292
    69  C   -0.444435
    70  H    0.100486
    71  H    0.094089
    72  H    0.095764
    73  C   -0.474219
    74  H    0.113427
    75  H    0.104198
    76  H    0.098889
 Sum of ESP charges =   0.00000

 Normal termination of Gaussian 09 at Wed Apr 26 15:04:52 2017.
