 Gaussian 09, Revision D.01,
 Gaussian 09:  EM64L-G09RevD.01 24-Apr-2013

 ----------------------------------------------------------------------
 #P HF/6-31G* SCF(Conver=6) NoSymm Test Pop=mk IOp(6/33=2) GFInput GFPr
 int
 ----------------------------------------------------------------------

 ----------------------------------------------
 MEP - Input generated by R.E.D.-III.x MOLECULE
 ----------------------------------------------
 Symbolic Z-matrix:
 Charge =  0 Multiplicity = 1

                          Input orientation:
 ---------------------------------------------------------------------
 Center     Atomic      Atomic             Coordinates (Angstroms)
 Number     Number       Type             X           Y           Z
 ---------------------------------------------------------------------
      1          6           0        1.012825   -0.877110   -1.691000
      2          1           0        1.141944    0.094953   -2.182605
      3          6           0        2.249018   -1.745399   -1.974138
      4          1           0        2.386571   -1.849312   -3.054921
      5          1           0        2.044976   -2.754938   -1.583951
      6          6           0        3.507482   -1.186879   -1.335686
      7          6           0        3.434819   -0.864274    0.162164
      8          6           0        2.129666   -0.049321    0.419834
      9          1           0        2.265663    0.956661    0.000000
     10          1           0        1.990493    0.080492    1.498495
     11          6           0        0.855907   -0.658551   -0.186230
     12          1           0        0.622996   -1.620516    0.293885
     13          1           0        0.000000    0.000000    0.000000
     14          6           0        4.608885   -1.002019   -2.079881
     15          1           0        4.579987   -1.253102   -3.138579
     16          6           0        5.910009   -0.459969   -1.562427
     17          1           0        6.750171   -1.021413   -1.990418
     18          6           0        5.994908   -0.489541   -0.025607
     19          1           0        6.144870   -1.548036    0.228836
     20          6           0        4.664310    0.006777    0.602000
     21          1           0        4.492937    1.008286    0.180776
     22          6           0        4.772546    0.178026    2.137170
     23          1           0        4.784260   -0.802779    2.623082
     24          1           0        3.876733    0.687647    2.510275
     25          6           0        6.014933    0.963965    2.603701
     26          1           0        5.943303    2.005023    2.258429
     27          1           0        6.017131    0.995985    3.699303
     28          6           0        7.315878    0.346028    2.055971
     29          6           0        7.181823    0.327674    0.505972
     30          1           0        6.985447    1.369586    0.219800
     31          6           0        8.596663    0.000000    0.000000
     32          1           0        8.760050    0.366154   -1.017401
     33          1           0        8.765430   -1.084364   -0.016530
     34          6           0        9.526965    0.691368    1.038033
     35          1           0       10.266510   -0.015732    1.426896
     36          1           0       10.095450    1.513715    0.590352
     37          6           0        8.603525    1.231100    2.175781
     38          1           0        8.274465    2.231319    1.855810
     39          6           0        7.526837   -1.068172    2.643760
     40          1           0        6.766202   -1.775349    2.302476
     41          1           0        8.499508   -1.487033    2.372930
     42          1           0        7.471685   -1.043939    3.736157
     43          6           0        9.353385    1.494215    3.514779
     44          1           0       10.182613    2.155846    3.214061
     45          6           0       10.008182    0.276372    4.197909
     46          1           0        9.276663   -0.336426    4.733275
     47          1           0       10.754057    0.604114    4.928751
     48          1           0       10.527114   -0.370508    3.484767
     49          6           0        3.375185   -2.204849    0.944929
     50          1           0        3.121835   -2.040461    1.996428
     51          1           0        2.620154   -2.879635    0.534573
     52          1           0        4.333647   -2.731436    0.902264
     53          8           0        6.094717    0.925522   -1.964523
     54          8           0        6.273485    0.945337   -3.408595
     55          1           0        5.430694    1.335898   -3.693388
     56          8           0       -0.164891   -1.419292   -2.293902
     57          1           0       -0.355697   -2.275894   -1.886480
     58          6           0        8.499166    2.305050    4.517619
     59          1           0        7.925572    3.055544    3.959591
     60          1           0        7.758926    1.643187    4.988865
     61          6           0        9.305866    3.009180    5.620981
     62          1           0        9.891368    2.267249    6.177598
     63          1           0       10.039778    3.682169    5.156780
     64          6           0        8.450711    3.785032    6.640297
     65          1           0        9.111185    4.162931    7.434871
     66          1           0        7.764901    3.077909    7.129333
     67          6           0        7.622934    4.971383    6.101310
     68          1           0        6.943891    4.594230    5.323349
     69          6           0        6.752794    5.562056    7.222434
     70          1           0        7.376622    5.963220    8.031616
     71          1           0        6.125235    6.380073    6.850590
     72          1           0        6.092005    4.803258    7.657347
     73          6           0        8.502713    6.062287    5.470425
     74          1           0        9.218854    6.456951    6.203021
     75          1           0        7.892545    6.901586    5.117724
     76          1           0        9.074091    5.688769    4.614493
 ---------------------------------------------------------------------

 SCF Done:  E(RHF) =  -1273.67800633     A.U. after    9 cycles

 Alpha  occ. eigenvalues --  -20.62350 -20.62023 -20.56070 -11.28471 -11.28240
 Alpha  occ. eigenvalues --  -11.24968 -11.24534 -11.23092 -11.22994 -11.22961
 Alpha  occ. eigenvalues --  -11.22931 -11.22677 -11.22635 -11.22443 -11.22408
 Alpha  occ. eigenvalues --  -11.22379 -11.22258 -11.21929 -11.21912 -11.21532
 Alpha  occ. eigenvalues --  -11.21528 -11.21463 -11.21322 -11.21306 -11.21082
 Alpha  occ. eigenvalues --  -11.21024 -11.20986 -11.20913 -11.20902 -11.20776
 Alpha  occ. eigenvalues --   -1.45654  -1.35448  -1.22093  -1.15596  -1.13907
 Alpha  occ. eigenvalues --   -1.09589  -1.07972  -1.05797  -1.05741  -1.03092
 Alpha  occ. eigenvalues --   -1.01608  -0.99429  -0.97958  -0.96339  -0.92649
 Alpha  occ. eigenvalues --   -0.92407  -0.92368  -0.91801  -0.90460  -0.86236
 Alpha  occ. eigenvalues --   -0.83954  -0.82981  -0.82604  -0.79075  -0.78438
 Alpha  occ. eigenvalues --   -0.76969  -0.74570  -0.73644  -0.71910  -0.70766
 Alpha  occ. eigenvalues --   -0.69032  -0.67099  -0.65222  -0.64652  -0.64318
 Alpha  occ. eigenvalues --   -0.63779  -0.63340  -0.62935  -0.62659  -0.61532
 Alpha  occ. eigenvalues --   -0.61172  -0.59781  -0.59362  -0.59050  -0.58213
 Alpha  occ. eigenvalues --   -0.57791  -0.57617  -0.57316  -0.56716  -0.55893
 Alpha  occ. eigenvalues --   -0.55359  -0.54922  -0.54269  -0.54214  -0.53861
 Alpha  occ. eigenvalues --   -0.53320  -0.53044  -0.52951  -0.52136  -0.51160
 Alpha  occ. eigenvalues --   -0.50862  -0.50619  -0.50275  -0.49675  -0.49063
 Alpha  occ. eigenvalues --   -0.48678  -0.48248  -0.47954  -0.47226  -0.47202
 Alpha  occ. eigenvalues --   -0.46625  -0.46119  -0.45721  -0.45270  -0.45055
 Alpha  occ. eigenvalues --   -0.44705  -0.44283  -0.43704  -0.43009  -0.42888
 Alpha  occ. eigenvalues --   -0.42695  -0.42229  -0.41520  -0.40190  -0.38877
 Alpha  occ. eigenvalues --   -0.34688
 Alpha virt. eigenvalues --    0.16026   0.20232   0.21147   0.21800   0.22338
 Alpha virt. eigenvalues --    0.22908   0.23121   0.24030   0.24337   0.24645
 Alpha virt. eigenvalues --    0.25343   0.25928   0.26460   0.26880   0.27105

 Mulliken charges:
               1
     1  C    0.194097
     2  H    0.172025
     3  C   -0.368804
     4  H    0.192279
     5  H    0.155642
     6  C    0.083553
     7  C   -0.044703
     8  C   -0.325453
     9  H    0.168007
    10  H    0.173708
    11  C   -0.341346
    12  H    0.145129
    13  H    0.184046
    14  C   -0.277458
    15  H    0.193437
    16  C    0.192849
    17  H    0.186795
    18  C   -0.209976
    19  H    0.171917
    20  C   -0.157448
    21  H    0.177920
    22  C   -0.330010
    23  H    0.165287
    24  H    0.165238
    25  C   -0.298992
    26  H    0.154483
    27  H    0.162728
    28  C   -0.023555
    29  C   -0.155981
    30  H    0.187805
    31  C   -0.325623
    32  H    0.188535
    33  H    0.151409
    34  C   -0.328510
    35  H    0.159329
    36  H    0.167176
    37  C   -0.155612
    38  H    0.156221
    39  C   -0.486456
    40  H    0.158273
    41  H    0.167219
    42  H    0.161076
    43  C   -0.135208
    44  H    0.152573
    45  C   -0.485727
    46  H    0.155288
    47  H    0.162578
    48  H    0.161201
    49  C   -0.482596
    50  H    0.168181
    51  H    0.162908
    52  H    0.169472
    53  O   -0.398515
    54  O   -0.464355
    55  H    0.459442
    56  O   -0.758781
    57  H    0.428766
    58  C   -0.309714
    59  H    0.159213
    60  H    0.149158
    61  C   -0.314166
    62  H    0.160082
    63  H    0.154455
    64  C   -0.297211
    65  H    0.151063
    66  H    0.150511
    67  C   -0.152594
    68  H    0.156130
    69  C   -0.471585
    70  H    0.152393
    71  H    0.158060
    72  H    0.156944
    73  C   -0.476469
    74  H    0.152137
    75  H    0.158333
    76  H    0.161778
 Sum of Mulliken charges =   0.00000

 Dipole moment (field-independent basis, Debye):
    X=             -0.9601    Y=             -1.4926    Z=              1.7596  Tot=              2.4992
 Quadrupole moment (field-independent basis, Debye-Ang):
   XX=           -210.7008   YY=           -186.9249   ZZ=           -196.0162
   XY=             -5.8998   XZ=              5.5859   YZ=             -1.0874

 ESP charges:
               1
     1  C    0.563020
     2  H    0.037160
     3  C   -0.535721
     4  H    0.159024
     5  H    0.139972
     6  C    0.238856
     7  C    0.241110
     8  C   -0.013136
     9  H    0.010508
    10  H    0.063528
    11  C   -0.368809
    12  H    0.090348
    13  H    0.095627
    14  C   -0.530710
    15  H    0.171171
    16  C    0.593906
    17  H    0.023324
    18  C   -0.497754
    19  H    0.131985
    20  C   -0.372179
    21  H    0.135864
    22  C    0.162128
    23  H   -0.002798
    24  H   -0.010481
    25  C   -0.229614
    26  H    0.022650
    27  H   -0.004170
    28  C    0.688500
    29  C    0.242593
    30  H   -0.030948
    31  C   -0.201399
    32  H    0.097119
    33  H    0.027102
    34  C   -0.230873
    35  H    0.076053
    36  H    0.057930
    37  C    0.000616
    38  H   -0.030252
    39  C   -0.680613
    40  H    0.150091
    41  H    0.146503
    42  H    0.133844
    43  C    0.119387
    44  H    0.014885
    45  C   -0.415861
    46  H    0.093654
    47  H    0.093550
    48  H    0.096438
    49  C   -0.391832
    50  H    0.096216
    51  H    0.097575
    52  H    0.113825
    53  O   -0.299449
    54  O   -0.472987
    55  H    0.445682
    56  O   -0.747726
    57  H    0.424930
    58  C   -0.102090
    59  H    0.006720
    60  H    0.051887
    61  C    0.008614
    62  H    0.044123
    63  H    0.011628
    64  C   -0.346808
    65  H    0.078503
    66  H    0.073144
    67  C    0.553249
    68  H   -0.063898
    69  C   -0.549780
    70  H    0.123189
    71  H    0.124584
    72  H    0.113656
    73  C   -0.463691
    74  H    0.105756
    75  H    0.094023
    76  H    0.107831
 Sum of ESP charges =   0.00000

 Normal termination of Gaussian 09 at Wed Apr 26 13:59:22 2017.
